ITEM: TIMESTEP
0
ITEM: NUMBER OF ATOMS
500
ITEM: BOX BOUNDS pp pp pp
0.0000000000000000e+00 1.3572088082974531e+01
0.0000000000000000e+00 1.3572088082974531e+01
0.0000000000000000e+00 1.3572088082974531e+01
ITEM: ATOMS id type xs ys zs
1 1 0 0 0
2 1 0.1 0.1 0
3 1 0.1 0 0.1
4 1 0 0.1 0.1
5 1 0.2 0 0
8 1 0.2 0.1 0.1
6 1 0.3 0.1 0
7 1 0.3 0 0.1
9 1 0.4 0 0
12 1 0.4 0.1 0.1
10 1 0.5 0.1 0
11 1 0.5 0 0.1
13 1 0.6 0 0
16 1 0.6 0.1 0.1
14 1 0.7 0.1 0
15 1 0.7 0 0.1
17 1 0.8 0 0
20 1 0.8 0.1 0.1
18 1 0.9 0.1 0
19 1 0.9 0 0.1
21 1 0 0.2 0
23 1 0.1 0.2 0.1
25 1 0.2 0.2 0
27 1 0.3 0.2 0.1
29 1 0.4 0.2 0
31 1 0.5 0.2 0.1
33 1 0.6 0.2 0
35 1 0.7 0.2 0.1
37 1 0.8 0.2 0
39 1 0.9 0.2 0.1
22 1 0.1 0.3 0
24 1 0 0.3 0.1
28 1 0.2 0.3 0.1
26 1 0.3 0.3 0
32 1 0.4 0.3 0.1
30 1 0.5 0.3 0
36 1 0.6 0.3 0.1
34 1 0.7 0.3 0
40 1 0.8 0.3 0.1
38 1 0.9 0.3 0
41 1 0 0.4 0
43 1 0.1 0.4 0.1
45 1 0.2 0.4 0
47 1 0.3 0.4 0.1
49 1 0.4 0.4 0
51 1 0.5 0.4 0.1
53 1 0.6 0.4 0
55 1 0.7 0.4 0.1
57 1 0.8 0.4 0
59 1 0.9 0.4 0.1
42 1 0.1 0.5 0
44 1 0 0.5 0.1
48 1 0.2 0.5 0.1
46 1 0.3 0.5 0
52 1 0.4 0.5 0.1
50 1 0.5 0.5 0
56 1 0.6 0.5 0.1
54 1 0.7 0.5 0
60 1 0.8 0.5 0.1
58 1 0.9 0.5 0
61 1 0 0.6 0
63 1 0.1 0.6 0.1
65 1 0.2 0.6 0
67 1 0.3 0.6 0.1
69 1 0.4 0.6 0
71 1 0.5 0.6 0.1
73 1 0.6 0.6 0
75 1 0.7 0.6 0.1
77 1 0.8 0.6 0
79 1 0.9 0.6 0.1
62 1 0.1 0.7 0
64 1 0 0.7 0.1
68 1 0.2 0.7 0.1
66 1 0.3 0.7 0
72 1 0.4 0.7 0.1
70 1 0.5 0.7 0
76 1 0.6 0.7 0.1
74 1 0.7 0.7 0
80 1 0.8 0.7 0.1
78 1 0.9 0.7 0
81 1 0 0.8 0
83 1 0.1 0.8 0.1
85 1 0.2 0.8 0
87 1 0.3 0.8 0.1
89 1 0.4 0.8 0
91 1 0.5 0.8 0.1
93 1 0.6 0.8 0
95 1 0.7 0.8 0.1
97 1 0.8 0.8 0
99 1 0.9 0.8 0.1
82 1 0.1 0.9 0
84 1 0 0.9 0.1
88 1 0.2 0.9 0.1
86 1 0.3 0.9 0
92 1 0.4 0.9 0.1
90 1 0.5 0.9 0
96 1 0.6 0.9 0.1
94 1 0.7 0.9 0
100 1 0.8 0.9 0.1
98 1 0.9 0.9 0
101 1 0 0 0.2
102 1 0.1 0.1 0.2
105 1 0.2 0 0.2
106 1 0.3 0.1 0.2
109 1 0.4 0 0.2
110 1 0.5 0.1 0.2
113 1 0.6 0 0.2
114 1 0.7 0.1 0.2
117 1 0.8 0 0.2
118 1 0.9 0.1 0.2
121 1 0 0.2 0.2
125 1 0.2 0.2 0.2
129 1 0.4 0.2 0.2
133 1 0.6 0.2 0.2
137 1 0.8 0.2 0.2
122 1 0.1 0.3 0.2
126 1 0.3 0.3 0.2
130 1 0.5 0.3 0.2
134 1 0.7 0.3 0.2
138 1 0.9 0.3 0.2
141 1 0 0.4 0.2
145 1 0.2 0.4 0.2
149 1 0.4 0.4 0.2
153 1 0.6 0.4 0.2
157 1 0.8 0.4 0.2
142 1 0.1 0.5 0.2
146 1 0.3 0.5 0.2
150 1 0.5 0.5 0.2
154 1 0.7 0.5 0.2
158 1 0.9 0.5 0.2
161 1 0 0.6 0.2
165 1 0.2 0.6 0.2
169 1 0.4 0.6 0.2
173 1 0.6 0.6 0.2
177 1 0.8 0.6 0.2
162 1 0.1 0.7 0.2
166 1 0.3 0.7 0.2
170 1 0.5 0.7 0.2
174 1 0.7 0.7 0.2
178 1 0.9 0.7 0.2
181 1 0 0.8 0.2
185 1 0.2 0.8 0.2
189 1 0.4 0.8 0.2
193 1 0.6 0.8 0.2
197 1 0.8 0.8 0.2
182 1 0.1 0.9 0.2
186 1 0.3 0.9 0.2
190 1 0.5 0.9 0.2
194 1 0.7 0.9 0.2
198 1 0.9 0.9 0.2
103 1 0.1 0 0.3
104 1 0 0.1 0.3
108 1 0.2 0.1 0.3
107 1 0.3 0 0.3
112 1 0.4 0.1 0.3
111 1 0.5 0 0.3
116 1 0.6 0.1 0.3
115 1 0.7 0 0.3
120 1 0.8 0.1 0.3
119 1 0.9 0 0.3
123 1 0.1 0.2 0.3
127 1 0.3 0.2 0.3
131 1 0.5 0.2 0.3
135 1 0.7 0.2 0.3
139 1 0.9 0.2 0.3
124 1 0 0.3 0.3
128 1 0.2 0.3 0.3
132 1 0.4 0.3 0.3
136 1 0.6 0.3 0.3
140 1 0.8 0.3 0.3
143 1 0.1 0.4 0.3
147 1 0.3 0.4 0.3
151 1 0.5 0.4 0.3
155 1 0.7 0.4 0.3
159 1 0.9 0.4 0.3
144 1 0 0.5 0.3
148 1 0.2 0.5 0.3
152 1 0.4 0.5 0.3
156 1 0.6 0.5 0.3
160 1 0.8 0.5 0.3
163 1 0.1 0.6 0.3
167 1 0.3 0.6 0.3
171 1 0.5 0.6 0.3
175 1 0.7 0.6 0.3
179 1 0.9 0.6 0.3
164 1 0 0.7 0.3
168 1 0.2 0.7 0.3
172 1 0.4 0.7 0.3
176 1 0.6 0.7 0.3
180 1 0.8 0.7 0.3
183 1 0.1 0.8 0.3
187 1 0.3 0.8 0.3
191 1 0.5 0.8 0.3
195 1 0.7 0.8 0.3
199 1 0.9 0.8 0.3
184 1 0 0.9 0.3
188 1 0.2 0.9 0.3
192 1 0.4 0.9 0.3
196 1 0.6 0.9 0.3
200 1 0.8 0.9 0.3
201 1 0 0 0.4
202 1 0.1 0.1 0.4
205 1 0.2 0 0.4
206 1 0.3 0.1 0.4
209 1 0.4 0 0.4
210 1 0.5 0.1 0.4
213 1 0.6 0 0.4
214 1 0.7 0.1 0.4
217 1 0.8 0 0.4
218 1 0.9 0.1 0.4
221 1 0 0.2 0.4
225 1 0.2 0.2 0.4
229 1 0.4 0.2 0.4
233 1 0.6 0.2 0.4
237 1 0.8 0.2 0.4
222 1 0.1 0.3 0.4
226 1 0.3 0.3 0.4
230 1 0.5 0.3 0.4
234 1 0.7 0.3 0.4
238 1 0.9 0.3 0.4
241 1 0 0.4 0.4
245 1 0.2 0.4 0.4
249 1 0.4 0.4 0.4
253 1 0.6 0.4 0.4
257 1 0.8 0.4 0.4
242 1 0.1 0.5 0.4
246 1 0.3 0.5 0.4
250 1 0.5 0.5 0.4
254 1 0.7 0.5 0.4
258 1 0.9 0.5 0.4
261 1 0 0.6 0.4
265 1 0.2 0.6 0.4
269 1 0.4 0.6 0.4
273 1 0.6 0.6 0.4
277 1 0.8 0.6 0.4
262 1 0.1 0.7 0.4
266 1 0.3 0.7 0.4
270 1 0.5 0.7 0.4
274 1 0.7 0.7 0.4
278 1 0.9 0.7 0.4
281 1 0 0.8 0.4
285 1 0.2 0.8 0.4
289 1 0.4 0.8 0.4
293 1 0.6 0.8 0.4
297 1 0.8 0.8 0.4
282 1 0.1 0.9 0.4
286 1 0.3 0.9 0.4
290 1 0.5 0.9 0.4
294 1 0.7 0.9 0.4
298 1 0.9 0.9 0.4
203 1 0.1 0 0.5
204 1 0 0.1 0.5
208 1 0.2 0.1 0.5
207 1 0.3 0 0.5
212 1 0.4 0.1 0.5
211 1 0.5 0 0.5
216 1 0.6 0.1 0.5
215 1 0.7 0 0.5
220 1 0.8 0.1 0.5
219 1 0.9 0 0.5
223 1 0.1 0.2 0.5
227 1 0.3 0.2 0.5
231 1 0.5 0.2 0.5
235 1 0.7 0.2 0.5
239 1 0.9 0.2 0.5
224 1 0 0.3 0.5
228 1 0.2 0.3 0.5
232 1 0.4 0.3 0.5
236 1 0.6 0.3 0.5
240 1 0.8 0.3 0.5
243 1 0.1 0.4 0.5
247 1 0.3 0.4 0.5
251 1 0.5 0.4 0.5
255 1 0.7 0.4 0.5
259 1 0.9 0.4 0.5
244 1 0 0.5 0.5
248 1 0.2 0.5 0.5
252 1 0.4 0.5 0.5
256 1 0.6 0.5 0.5
260 1 0.8 0.5 0.5
263 1 0.1 0.6 0.5
267 1 0.3 0.6 0.5
271 1 0.5 0.6 0.5
275 1 0.7 0.6 0.5
279 1 0.9 0.6 0.5
264 1 0 0.7 0.5
268 1 0.2 0.7 0.5
272 1 0.4 0.7 0.5
276 1 0.6 0.7 0.5
280 1 0.8 0.7 0.5
283 1 0.1 0.8 0.5
287 1 0.3 0.8 0.5
291 1 0.5 0.8 0.5
295 1 0.7 0.8 0.5
299 1 0.9 0.8 0.5
284 1 0 0.9 0.5
288 1 0.2 0.9 0.5
292 1 0.4 0.9 0.5
296 1 0.6 0.9 0.5
300 1 0.8 0.9 0.5
301 1 0 0 0.6
302 1 0.1 0.1 0.6
305 1 0.2 0 0.6
306 1 0.3 0.1 0.6
309 1 0.4 0 0.6
310 1 0.5 0.1 0.6
313 1 0.6 0 0.6
314 1 0.7 0.1 0.6
317 1 0.8 0 0.6
318 1 0.9 0.1 0.6
321 1 0 0.2 0.6
325 1 0.2 0.2 0.6
329 1 0.4 0.2 0.6
333 1 0.6 0.2 0.6
337 1 0.8 0.2 0.6
322 1 0.1 0.3 0.6
326 1 0.3 0.3 0.6
330 1 0.5 0.3 0.6
334 1 0.7 0.3 0.6
338 1 0.9 0.3 0.6
341 1 0 0.4 0.6
345 1 0.2 0.4 0.6
349 1 0.4 0.4 0.6
353 1 0.6 0.4 0.6
357 1 0.8 0.4 0.6
342 1 0.1 0.5 0.6
346 1 0.3 0.5 0.6
350 1 0.5 0.5 0.6
354 1 0.7 0.5 0.6
358 1 0.9 0.5 0.6
361 1 0 0.6 0.6
365 1 0.2 0.6 0.6
369 1 0.4 0.6 0.6
373 1 0.6 0.6 0.6
377 1 0.8 0.6 0.6
362 1 0.1 0.7 0.6
366 1 0.3 0.7 0.6
370 1 0.5 0.7 0.6
374 1 0.7 0.7 0.6
378 1 0.9 0.7 0.6
381 1 0 0.8 0.6
385 1 0.2 0.8 0.6
389 1 0.4 0.8 0.6
393 1 0.6 0.8 0.6
397 1 0.8 0.8 0.6
382 1 0.1 0.9 0.6
386 1 0.3 0.9 0.6
390 1 0.5 0.9 0.6
394 1 0.7 0.9 0.6
398 1 0.9 0.9 0.6
303 1 0.1 0 0.7
304 1 0 0.1 0.7
308 1 0.2 0.1 0.7
307 1 0.3 0 0.7
312 1 0.4 0.1 0.7
311 1 0.5 0 0.7
316 1 0.6 0.1 0.7
315 1 0.7 0 0.7
320 1 0.8 0.1 0.7
319 1 0.9 0 0.7
323 1 0.1 0.2 0.7
327 1 0.3 0.2 0.7
331 1 0.5 0.2 0.7
335 1 0.7 0.2 0.7
339 1 0.9 0.2 0.7
324 1 0 0.3 0.7
328 1 0.2 0.3 0.7
332 1 0.4 0.3 0.7
336 1 0.6 0.3 0.7
340 1 0.8 0.3 0.7
343 1 0.1 0.4 0.7
347 1 0.3 0.4 0.7
351 1 0.5 0.4 0.7
355 1 0.7 0.4 0.7
359 1 0.9 0.4 0.7
344 1 0 0.5 0.7
348 1 0.2 0.5 0.7
352 1 0.4 0.5 0.7
356 1 0.6 0.5 0.7
360 1 0.8 0.5 0.7
363 1 0.1 0.6 0.7
367 1 0.3 0.6 0.7
371 1 0.5 0.6 0.7
375 1 0.7 0.6 0.7
379 1 0.9 0.6 0.7
364 1 0 0.7 0.7
368 1 0.2 0.7 0.7
372 1 0.4 0.7 0.7
376 1 0.6 0.7 0.7
380 1 0.8 0.7 0.7
383 1 0.1 0.8 0.7
387 1 0.3 0.8 0.7
391 1 0.5 0.8 0.7
395 1 0.7 0.8 0.7
399 1 0.9 0.8 0.7
384 1 0 0.9 0.7
388 1 0.2 0.9 0.7
392 1 0.4 0.9 0.7
396 1 0.6 0.9 0.7
400 1 0.8 0.9 0.7
401 1 0 0 0.8
402 1 0.1 0.1 0.8
405 1 0.2 0 0.8
406 1 0.3 0.1 0.8
409 1 0.4 0 0.8
410 1 0.5 0.1 0.8
413 1 0.6 0 0.8
414 1 0.7 0.1 0.8
417 1 0.8 0 0.8
418 1 0.9 0.1 0.8
421 1 0 0.2 0.8
425 1 0.2 0.2 0.8
429 1 0.4 0.2 0.8
433 1 0.6 0.2 0.8
437 1 0.8 0.2 0.8
422 1 0.1 0.3 0.8
426 1 0.3 0.3 0.8
430 1 0.5 0.3 0.8
434 1 0.7 0.3 0.8
438 1 0.9 0.3 0.8
441 1 0 0.4 0.8
445 1 0.2 0.4 0.8
449 1 0.4 0.4 0.8
453 1 0.6 0.4 0.8
457 1 0.8 0.4 0.8
442 1 0.1 0.5 0.8
446 1 0.3 0.5 0.8
450 1 0.5 0.5 0.8
454 1 0.7 0.5 0.8
458 1 0.9 0.5 0.8
461 1 0 0.6 0.8
465 1 0.2 0.6 0.8
469 1 0.4 0.6 0.8
473 1 0.6 0.6 0.8
477 1 0.8 0.6 0.8
462 1 0.1 0.7 0.8
466 1 0.3 0.7 0.8
470 1 0.5 0.7 0.8
474 1 0.7 0.7 0.8
478 1 0.9 0.7 0.8
481 1 0 0.8 0.8
485 1 0.2 0.8 0.8
489 1 0.4 0.8 0.8
493 1 0.6 0.8 0.8
497 1 0.8 0.8 0.8
482 1 0.1 0.9 0.8
486 1 0.3 0.9 0.8
490 1 0.5 0.9 0.8
494 1 0.7 0.9 0.8
498 1 0.9 0.9 0.8
403 1 0.1 0 0.9
404 1 0 0.1 0.9
408 1 0.2 0.1 0.9
407 1 0.3 0 0.9
412 1 0.4 0.1 0.9
411 1 0.5 0 0.9
416 1 0.6 0.1 0.9
415 1 0.7 0 0.9
420 1 0.8 0.1 0.9
419 1 0.9 0 0.9
423 1 0.1 0.2 0.9
427 1 0.3 0.2 0.9
431 1 0.5 0.2 0.9
435 1 0.7 0.2 0.9
439 1 0.9 0.2 0.9
424 1 0 0.3 0.9
428 1 0.2 0.3 0.9
432 1 0.4 0.3 0.9
436 1 0.6 0.3 0.9
440 1 0.8 0.3 0.9
443 1 0.1 0.4 0.9
447 1 0.3 0.4 0.9
451 1 0.5 0.4 0.9
455 1 0.7 0.4 0.9
459 1 0.9 0.4 0.9
444 1 0 0.5 0.9
448 1 0.2 0.5 0.9
452 1 0.4 0.5 0.9
456 1 0.6 0.5 0.9
460 1 0.8 0.5 0.9
463 1 0.1 0.6 0.9
467 1 0.3 0.6 0.9
471 1 0.5 0.6 0.9
475 1 0.7 0.6 0.9
479 1 0.9 0.6 0.9
464 1 0 0.7 0.9
468 1 0.2 0.7 0.9
472 1 0.4 0.7 0.9
476 1 0.6 0.7 0.9
480 1 0.8 0.7 0.9
483 1 0.1 0.8 0.9
487 1 0.3 0.8 0.9
491 1 0.5 0.8 0.9
495 1 0.7 0.8 0.9
499 1 0.9 0.8 0.9
484 1 0 0.9 0.9
488 1 0.2 0.9 0.9
492 1 0.4 0.9 0.9
496 1 0.6 0.9 0.9
500 1 0.8 0.9 0.9
ITEM: TIMESTEP
50
ITEM: NUMBER OF ATOMS
500
ITEM: BOX BOUNDS pp pp pp
0.0000000000000000e+00 1.3572088082974531e+01
0.0000000000000000e+00 1.3572088082974531e+01
0.0000000000000000e+00 1.3572088082974531e+01
ITEM: ATOMS id type xs ys zs
1 1 0.97417 0.0222569 0.0293476
2 1 0.0701697 0.0686135 0.971544
3 1 0.117627 0.00484627 0.12704
4 1 0.01838 0.0886023 0.079487
5 1 0.185101 0.0186362 0.0313861
8 1 0.181184 0.127148 0.0825949
6 1 0.277543 0.0893952 0.969515
7 1 0.285524 0.978155 0.123378
9 1 0.427875 0.0285253 0.986611
12 1 0.428788 0.127842 0.0714098
10 1 0.508273 0.100459 0.980589
11 1 0.526463 0.988904 0.131427
13 1 0.627736 0.024764 0.991053
16 1 0.587927 0.101662 0.113331
14 1 0.674463 0.111578 0.00536926
15 1 0.683148 0.97912 0.13298
17 1 0.807935 0.999511 0.992807
20 1 0.804677 0.0785079 0.111403
18 1 0.906963 0.0871515 0.0153317
19 1 0.876173 0.00225704 0.071179
21 1 0.0295449 0.189222 0.00849214
23 1 0.10384 0.173261 0.0775849
25 1 0.204765 0.171488 0.0157933
27 1 0.326078 0.178617 0.0950109
29 1 0.401071 0.213575 0.0130111
31 1 0.519404 0.202477 0.0858763
33 1 0.576388 0.196492 0.0147106
35 1 0.709234 0.196889 0.111109
37 1 0.81829 0.21607 0.0283334
39 1 0.917192 0.231234 0.0894325
22 1 0.0970077 0.272954 0.977086
24 1 0.995021 0.281207 0.0833689
28 1 0.209375 0.324588 0.131823
26 1 0.305952 0.29278 0.986267
32 1 0.391434 0.286438 0.109448
30 1 0.481435 0.286856 0.995545
36 1 0.573279 0.31201 0.0715767
34 1 0.671116 0.268863 0.995825
40 1 0.795359 0.272706 0.0755516
38 1 0.911066 0.28902 0.978462
41 1 0.985656 0.418165 0.969265
43 1 0.0904039 0.412479 0.0784578
45 1 0.225071 0.381566 0.0250005
47 1 0.322041 0.408644 0.125693
49 1 0.426027 0.381827 0.017494
51 1 0.498205 0.414455 0.123726
53 1 0.584816 0.414535 0.972733
55 1 0.673323 0.3756 0.0871691
57 1 0.814505 0.387729 0.00148264
59 1 0.885609 0.374936 0.132365
42 1 0.0966078 0.518092 0.0146374
44 1 0.96966 0.525374 0.1109
48 1 0.201817 0.508373 0.12855
46 1 0.298415 0.487149 0.987269
52 1 0.367926 0.475105 0.0896984
50 1 0.512092 0.499687 0.0145241
56 1 0.577303 0.474217 0.0839805
54 1 0.727976 0.506606 0.00332502
60 1 0.828109 0.46878 0.117758
58 1 0.889347 0.523891 0.989372
61 1 0.0247697 0.608827 0.994793
63 1 0.10494 0.608234 0.119591
65 1 0.223754 0.619527 0.0258653
67 1 0.301576 0.624874 0.098312
69 1 0.427747 0.607034 0.00125846
71 1 0.504517 0.58068 0.0857243
73 1 0.62529 0.579163 0.999308
75 1 0.714445 0.620829 0.0801723
77 1 0.800288 0.622217 0.988984
79 1 0.903314 0.61069 0.115422
62 1 0.101309 0.703706 0.983489
64 1 0.988489 0.715428 0.0694817
68 1 0.215992 0.686245 0.0838545
66 1 0.29535 0.707225 0.978219
72 1 0.41537 0.671302 0.107438
70 1 0.512613 0.724256 0.979085
76 1 0.568359 0.69947 0.12609
74 1 0.71375 0.670416 0.0309597
80 1 0.776921 0.713006 0.0985126
78 1 0.885866 0.669809 0.991576
81 1 0.979102 0.793622 0.0127851
83 1 0.0736688 0.783499 0.0921285
85 1 0.169508 0.82888 0.98376
87 1 0.329131 0.806435 0.108548
89 1 0.409074 0.771197 0.967945
91 1 0.494727 0.79554 0.115922
93 1 0.594385 0.820712 0.984755
95 1 0.672822 0.769562 0.124013
97 1 0.798261 0.805204 0.97019
99 1 0.919175 0.813446 0.108418
82 1 0.0748276 0.923681 0.980219
84 1 0.0219071 0.889428 0.123237
88 1 0.193867 0.880685 0.071241
86 1 0.319431 0.892307 0.00286804
92 1 0.397039 0.920466 0.0948332
90 1 0.483457 0.91193 0.96958
96 1 0.602112 0.902175 0.0733154
94 1 0.681034 0.901293 0.0131193
100 1 0.806274 0.881495 0.0958795
98 1 0.880266 0.87275 0.0163055
101 1 0.975484 0.969657 0.18311
102 1 0.11389 0.116459 0.23178
105 1 0.169189 0.0132838 0.215056
106 1 0.294478 0.125546 0.169957
109 1 0.4119 0.0266737 0.172548
110 1 0.489101 0.114945 0.220223
113 1 0.624651 0.978067 0.197033
114 1 0.711328 0.0784155 0.177289
117 1 0.810347 0.971306 0.178533
118 1 0.894662 0.108081 0.208232
121 1 0.0296536 0.204166 0.175752
125 1 0.17503 0.207532 0.197121
129 1 0.38059 0.200676 0.18769
133 1 0.58434 0.229676 0.183057
137 1 0.82794 0.168971 0.193531
122 1 0.105338 0.270538 0.222187
126 1 0.287152 0.274973 0.187202
130 1 0.505881 0.282377 0.184366
134 1 0.691869 0.288604 0.206824
138 1 0.892348 0.283941 0.182775
141 1 0.0120839 0.399173 0.210879
145 1 0.20214 0.371407 0.222369
149 1 0.388979 0.390415 0.171795
153 1 0.576489 0.401865 0.175047
157 1 0.772675 0.370932 0.189357
142 1 0.084896 0.526281 0.206707
146 1 0.297342 0.512572 0.19324
150 1 0.485674 0.46826 0.192314
154 1 0.695706 0.47173 0.217246
158 1 0.894042 0.470437 0.19331
161 1 0.987481 0.628642 0.22258
165 1 0.21 0.57715 0.188798
169 1 0.395524 0.592049 0.23047
173 1 0.588257 0.600589 0.187917
177 1 0.768049 0.614084 0.229446
162 1 0.129364 0.696404 0.213332
166 1 0.329849 0.693402 0.199199
170 1 0.48153 0.673857 0.187769
174 1 0.723506 0.729667 0.180996
178 1 0.911193 0.71632 0.226825
181 1 0.973384 0.800168 0.183888
185 1 0.229042 0.803498 0.17873
189 1 0.422185 0.7858 0.227994
193 1 0.616612 0.807312 0.207887
197 1 0.826051 0.772082 0.210807
182 1 0.126422 0.92817 0.208656
186 1 0.327075 0.87909 0.223609
190 1 0.483076 0.905266 0.210968
194 1 0.723241 0.883115 0.205561
198 1 0.918761 0.901136 0.215077
103 1 0.0949817 0.987062 0.297269
104 1 0.0168932 0.128457 0.33292
108 1 0.175886 0.125938 0.274303
107 1 0.289597 0.998281 0.317458
112 1 0.404341 0.128284 0.31822
111 1 0.494729 0.995662 0.319781
116 1 0.631027 0.0870979 0.288388
115 1 0.702654 0.0105623 0.324794
120 1 0.79597 0.0940614 0.27166
119 1 0.891829 0.00627804 0.29132
123 1 0.0901642 0.214309 0.326992
127 1 0.332751 0.223352 0.298618
131 1 0.469779 0.215997 0.311339
135 1 0.668882 0.203357 0.318199
139 1 0.890796 0.194238 0.332119
124 1 0.0252969 0.313526 0.284274
128 1 0.177619 0.304676 0.295764
132 1 0.386253 0.27882 0.30798
136 1 0.578842 0.311418 0.282451
140 1 0.80549 0.323255 0.31606
143 1 0.130903 0.419098 0.309864
147 1 0.323226 0.41597 0.323566
151 1 0.530782 0.409022 0.273074
155 1 0.695354 0.420917 0.268043
159 1 0.873298 0.425685 0.303171
144 1 0.0102008 0.530498 0.291397
148 1 0.19626 0.489884 0.282146
152 1 0.398398 0.482939 0.291701
156 1 0.575068 0.492102 0.309884
160 1 0.776495 0.480533 0.330446
163 1 0.106547 0.57716 0.331158
167 1 0.288578 0.607213 0.271727
171 1 0.496487 0.589943 0.281315
175 1 0.710732 0.619934 0.283538
179 1 0.873746 0.596773 0.286668
164 1 0.0138142 0.7291 0.301308
168 1 0.216397 0.677649 0.328183
172 1 0.420143 0.709491 0.301531
176 1 0.586612 0.6844 0.280801
180 1 0.826727 0.708808 0.281635
183 1 0.114489 0.786285 0.295018
187 1 0.326231 0.782986 0.313316
191 1 0.472828 0.784859 0.327104
195 1 0.731645 0.789965 0.274135
199 1 0.929575 0.825455 0.328306
184 1 0.00325911 0.918834 0.32749
188 1 0.192472 0.90199 0.278494
192 1 0.428207 0.866875 0.317782
196 1 0.613631 0.921636 0.327726
200 1 0.823945 0.914812 0.275395
201 1 0.0157191 0.989024 0.411537
202 1 0.094626 0.0718453 0.419635
205 1 0.181681 0.00956739 0.390388
206 1 0.32855 0.129396 0.403515
209 1 0.430051 0.00539839 0.428197
210 1 0.477669 0.105053 0.410055
213 1 0.620109 0.996887 0.417169
214 1 0.724759 0.0899534 0.427256
217 1 0.801915 0.974615 0.391867
218 1 0.905622 0.0716229 0.42751
221 1 0.983131 0.167139 0.394644
225 1 0.201048 0.191101 0.398834
229 1 0.380449 0.222066 0.431201
233 1 0.613499 0.214086 0.419521
237 1 0.812846 0.219115 0.381593
222 1 0.0999162 0.296359 0.369612
226 1 0.279091 0.328839 0.376478
230 1 0.481736 0.31629 0.382163
234 1 0.677761 0.302597 0.370153
238 1 0.92419 0.288427 0.420898
241 1 0.0118568 0.413734 0.420995
245 1 0.191592 0.423862 0.373337
249 1 0.426928 0.410825 0.418721
253 1 0.612961 0.42047 0.392925
257 1 0.826163 0.380901 0.396774
242 1 0.0721303 0.521471 0.393931
246 1 0.32539 0.514739 0.37085
250 1 0.505852 0.51978 0.429154
254 1 0.667787 0.498797 0.370262
258 1 0.929841 0.523013 0.409521
261 1 0.994557 0.566274 0.406425
265 1 0.230674 0.60567 0.375547
269 1 0.426404 0.619438 0.389413
273 1 0.625551 0.570441 0.384215
277 1 0.796478 0.57137 0.385681
262 1 0.100686 0.71377 0.407798
266 1 0.301421 0.681804 0.39899
270 1 0.523309 0.693729 0.414563
274 1 0.705494 0.690349 0.432808
278 1 0.916374 0.706933 0.405993
281 1 0.0242491 0.790236 0.37139
285 1 0.231462 0.789986 0.397039
289 1 0.379599 0.804707 0.380433
293 1 0.574193 0.77657 0.424439
297 1 0.789994 0.771299 0.388002
282 1 0.0980055 0.901295 0.390228
286 1 0.29983 0.905287 0.394352
290 1 0.529146 0.878586 0.381183
294 1 0.697817 0.913336 0.40925
298 1 0.874816 0.906551 0.424033
203 1 0.0904657 0.984898 0.488718
204 1 0.00739374 0.111911 0.484637
208 1 0.168001 0.105295 0.515639
207 1 0.308093 0.0293895 0.491817
212 1 0.380813 0.10094 0.500146
211 1 0.468067 0.995683 0.531206
216 1 0.580988 0.0832132 0.487172
215 1 0.69258 0.998544 0.505546
220 1 0.806277 0.100463 0.476466
219 1 0.8804 0.0173744 0.483698
223 1 0.093074 0.217681 0.491177
227 1 0.305696 0.203817 0.480443
231 1 0.476246 0.214218 0.47743
235 1 0.688777 0.179413 0.52083
239 1 0.886322 0.17623 0.51632
224 1 0.972443 0.280237 0.489873
228 1 0.189654 0.274071 0.523988
232 1 0.3992 0.284982 0.497986
236 1 0.567994 0.317231 0.505525
240 1 0.790037 0.270235 0.478375
243 1 0.0717198 0.376967 0.527974
247 1 0.305854 0.421997 0.478799
251 1 0.496763 0.375187 0.483032
255 1 0.695032 0.422336 0.495682
259 1 0.880265 0.388275 0.506456
244 1 0.00047195 0.511731 0.479797
248 1 0.201375 0.467659 0.496336
252 1 0.397622 0.491276 0.517092
256 1 0.620229 0.483853 0.521974
260 1 0.817647 0.499192 0.509669
263 1 0.0890445 0.627002 0.480792
267 1 0.319487 0.611882 0.490373
271 1 0.49197 0.592962 0.479761
275 1 0.702531 0.582146 0.526583
279 1 0.868969 0.598152 0.523281
264 1 0.982784 0.6871 0.49826
268 1 0.216022 0.714467 0.468425
272 1 0.38508 0.709533 0.531596
276 1 0.590015 0.694433 0.472341
280 1 0.77035 0.696068 0.477011
283 1 0.0991498 0.782742 0.47575
287 1 0.288238 0.784961 0.511067
291 1 0.483793 0.78653 0.497042
295 1 0.722934 0.817694 0.505339
299 1 0.879088 0.830896 0.484829
284 1 0.993809 0.918747 0.522093
288 1 0.229784 0.867264 0.51865
292 1 0.394518 0.894901 0.518089
296 1 0.582414 0.907826 0.521594
300 1 0.773307 0.90301 0.497196
301 1 0.992487 0.967436 0.590235
302 1 0.117318 0.123891 0.589612
305 1 0.182787 0.00471894 0.587706
306 1 0.315641 0.0925888 0.592495
309 1 0.37044 0.995759 0.590023
310 1 0.519626 0.0987919 0.596594
313 1 0.60159 0.97416 0.619088
314 1 0.711902 0.0825461 0.601807
317 1 0.806082 0.99148 0.619862
318 1 0.897564 0.104616 0.584488
321 1 0.998923 0.169253 0.582699
325 1 0.215067 0.223521 0.580644
329 1 0.375718 0.171266 0.587171
333 1 0.602424 0.198975 0.594748
337 1 0.812722 0.226907 0.599446
322 1 0.071331 0.330606 0.58938
326 1 0.318031 0.284227 0.588116
330 1 0.497919 0.293268 0.586617
334 1 0.710819 0.327864 0.604185
338 1 0.900585 0.315682 0.632371
341 1 0.988037 0.389932 0.629358
345 1 0.185864 0.398696 0.594663
349 1 0.421931 0.387241 0.580464
353 1 0.575146 0.423856 0.617617
357 1 0.782618 0.407926 0.620195
342 1 0.131722 0.530977 0.587579
346 1 0.326234 0.49593 0.603497
350 1 0.524665 0.468296 0.631363
354 1 0.708005 0.494524 0.569396
358 1 0.926623 0.531476 0.62523
361 1 0.996834 0.577869 0.606761
365 1 0.202271 0.620991 0.621531
369 1 0.38297 0.578131 0.597144
373 1 0.590421 0.597793 0.574745
377 1 0.791421 0.597385 0.625551
362 1 0.0778953 0.724399 0.605299
366 1 0.331095 0.681957 0.574195
370 1 0.497286 0.692601 0.623188
374 1 0.68856 0.724287 0.624598
378 1 0.92953 0.691811 0.572851
381 1 0.989249 0.791992 0.569445
385 1 0.193552 0.768651 0.605884
389 1 0.403341 0.813294 0.588014
393 1 0.572861 0.821259 0.583824
397 1 0.782941 0.772218 0.59089
382 1 0.125165 0.918096 0.619079
386 1 0.32325 0.883611 0.579535
390 1 0.490642 0.9103 0.601069
394 1 0.7005 0.923063 0.600724
398 1 0.888857 0.930807 0.603633
303 1 0.0767351 0.0294808 0.697302
304 1 0.0186494 0.131035 0.709839
308 1 0.205194 0.119089 0.68457
307 1 0.307073 0.991532 0.67924
312 1 0.427447 0.0720986 0.717986
311 1 0.476851 0.0251622 0.707541
316 1 0.60752 0.122956 0.710934
315 1 0.678257 0.993293 0.682612
320 1 0.814844 0.125641 0.680745
319 1 0.895805 0.979181 0.710934
323 1 0.0798679 0.200035 0.705859
327 1 0.291901 0.177943 0.728358
331 1 0.508169 0.170253 0.701043
335 1 0.724871 0.225011 0.708606
339 1 0.89409 0.177748 0.700031
324 1 0.987949 0.303314 0.68926
328 1 0.170491 0.325294 0.715922
332 1 0.367822 0.314173 0.69299
336 1 0.621288 0.314251 0.692971
340 1 0.769168 0.328743 0.69211
343 1 0.0696362 0.379622 0.697706
347 1 0.308584 0.399082 0.714845
351 1 0.526214 0.428274 0.705066
355 1 0.668726 0.392669 0.727974
359 1 0.924475 0.427247 0.729824
344 1 0.989108 0.478589 0.726518
348 1 0.229139 0.512756 0.733252
352 1 0.427348 0.500331 0.709506
356 1 0.629002 0.471021 0.70744
360 1 0.799417 0.468143 0.677079
363 1 0.085377 0.571852 0.682296
367 1 0.315069 0.569847 0.681971
371 1 0.520453 0.630976 0.728883
375 1 0.676678 0.619297 0.669994
379 1 0.909633 0.607876 0.720443
364 1 0.972524 0.722523 0.710254
368 1 0.169378 0.715425 0.666988
372 1 0.380432 0.699039 0.723052
376 1 0.623498 0.684765 0.712554
380 1 0.788089 0.710916 0.723634
383 1 0.104229 0.823338 0.708053
387 1 0.312389 0.831829 0.705074
391 1 0.523125 0.821504 0.722203
395 1 0.712819 0.822066 0.71853
399 1 0.893384 0.805025 0.709765
384 1 0.977349 0.909306 0.700142
388 1 0.211338 0.914431 0.71803
392 1 0.424335 0.892413 0.722714
396 1 0.583064 0.924475 0.685836
400 1 0.771173 0.928553 0.729771
401 1 0.0282652 0.0232803 0.79457
402 1 0.0888482 0.0862123 0.770809
405 1 0.224251 0.0187944 0.806284
406 1 0.298127 0.084716 0.820002
409 1 0.40451 0.0294414 0.785804
410 1 0.476894 0.126346 0.809825
413 1 0.622185 0.0302669 0.769617
414 1 0.710084 0.0994258 0.781741
417 1 0.7711 0.970392 0.786512
418 1 0.882022 0.0996374 0.816918
421 1 0.98527 0.196209 0.811224
425 1 0.21055 0.196763 0.786383
429 1 0.421883 0.182928 0.816822
433 1 0.572217 0.186001 0.777722
437 1 0.822812 0.225725 0.832683
422 1 0.10196 0.30318 0.769883
426 1 0.280121 0.329005 0.79137
430 1 0.499538 0.31495 0.813726
434 1 0.699635 0.272213 0.808943
438 1 0.919525 0.283611 0.77249
441 1 0.972432 0.391342 0.79044
445 1 0.216417 0.410715 0.789511
449 1 0.423825 0.368448 0.769548
453 1 0.590499 0.397222 0.812594
457 1 0.783246 0.420788 0.810755
442 1 0.0688501 0.469882 0.824475
446 1 0.272198 0.495967 0.795375
450 1 0.527431 0.469956 0.809552
454 1 0.7247 0.475398 0.777344
458 1 0.912307 0.474418 0.804937
461 1 0.0226496 0.595151 0.817304
465 1 0.186336 0.575232 0.783226
469 1 0.418881 0.601835 0.799026
473 1 0.624978 0.629879 0.790529
477 1 0.805104 0.569779 0.804243
462 1 0.0885181 0.676511 0.777424
466 1 0.316472 0.682739 0.817725
470 1 0.4735 0.728053 0.786075
474 1 0.675726 0.698845 0.785711
478 1 0.869583 0.685351 0.800842
481 1 0.969083 0.808082 0.827801
485 1 0.197003 0.806886 0.83256
489 1 0.413967 0.772345 0.831345
493 1 0.600914 0.778235 0.770268
497 1 0.812181 0.832587 0.823993
482 1 0.0805543 0.905649 0.808808
486 1 0.295706 0.926473 0.783875
490 1 0.509657 0.906523 0.80914
494 1 0.733675 0.901943 0.793212
498 1 0.895816 0.87334 0.779426
403 1 0.101656 0.983502 0.911004
404 1 0.0269478 0.108941 0.871049
408 1 0.215982 0.0944513 0.885048
407 1 0.307232 0.0298981 0.883863
412 1 0.390097 0.0702063 0.932274
411 1 0.490201 0.0247449 0.876053
416 1 0.573987 0.112604 0.894367
415 1 0.683831 0.0268908 0.882479
420 1 0.789816 0.128092 0.914859
419 1 0.893641 0.96776 0.917304
423 1 0.0936013 0.179876 0.926643
427 1 0.296165 0.202557 0.897612
431 1 0.519371 0.207274 0.911005
435 1 0.6949 0.196779 0.884647
439 1 0.921827 0.209839 0.871243
424 1 0.0123935 0.325155 0.914657
428 1 0.222946 0.270144 0.88234
432 1 0.393763 0.275444 0.91334
436 1 0.631924 0.278323 0.899863
440 1 0.778783 0.276712 0.929702
443 1 0.114767 0.410983 0.870106
447 1 0.329762 0.406038 0.870779
451 1 0.514784 0.392031 0.889329
455 1 0.70378 0.383657 0.92629
459 1 0.897491 0.417141 0.900834
444 1 0.975428 0.504266 0.915394
448 1 0.191512 0.477465 0.871323
452 1 0.422683 0.491634 0.892026
456 1 0.590836 0.489645 0.892431
460 1 0.816147 0.511137 0.909112
463 1 0.086427 0.624911 0.915496
467 1 0.301018 0.589165 0.920839
471 1 0.506657 0.629667 0.931015
475 1 0.729847 0.621336 0.875342
479 1 0.917077 0.606778 0.877626
464 1 0.990347 0.711279 0.872425
468 1 0.185235 0.668173 0.877738
472 1 0.376903 0.678334 0.927635
476 1 0.587726 0.695077 0.914107
480 1 0.787716 0.727531 0.896744
483 1 0.105438 0.822435 0.919269
487 1 0.319757 0.828135 0.893643
491 1 0.493696 0.80879 0.876257
495 1 0.721872 0.800789 0.895831
499 1 0.908667 0.820231 0.867466
484 1 0.968555 0.915164 0.910928
488 1 0.167366 0.901156 0.891679
492 1 0.388707 0.895867 0.879505
496 1 0.603411 0.879899 0.920179
500 1 0.776921 0.910512 0.876139
ITEM: TIMESTEP
100
ITEM: NUMBER OF ATOMS
500
ITEM: BOX BOUNDS pp pp pp
0.0000000000000000e+00 1.3572088082974531e+01
0.0000000000000000e+00 1.3572088082974531e+01
0.0000000000000000e+00 1.3572088082974531e+01
ITEM: ATOMS id type xs ys zs
1 1 0.96423 0.0341926 0.0690742
2 1 0.0397558 0.0357179 0.94208
3 1 0.139266 0.00776294 0.157738
4 1 0.0369344 0.0766855 0.0518037
5 1 0.168187 0.0403185 0.0659247
8 1 0.170084 0.134964 0.0917964
6 1 0.256632 0.077879 0.937003
7 1 0.27155 0.955082 0.146356
9 1 0.473852 0.0492844 0.986819
12 1 0.457119 0.162462 0.0397018
10 1 0.516379 0.102869 0.95757
11 1 0.555222 0.976827 0.165682
13 1 0.657935 0.0508087 0.980065
16 1 0.575184 0.104452 0.125373
14 1 0.644829 0.123793 0.0109675
15 1 0.691348 0.960569 0.139551
17 1 0.817125 0.997278 0.980177
20 1 0.809613 0.0545233 0.125666
18 1 0.895358 0.0820149 0.0270485
19 1 0.858499 0.0126172 0.0450892
21 1 0.048189 0.190825 0.00988367
23 1 0.0973698 0.143357 0.0614912
25 1 0.221147 0.150774 0.00843059
27 1 0.35994 0.15915 0.0934947
29 1 0.404987 0.228634 0.0290651
31 1 0.525611 0.209362 0.0930239
33 1 0.564625 0.190321 0.00572776
35 1 0.720363 0.195201 0.121267
37 1 0.856408 0.2034 0.0322717
39 1 0.913566 0.260628 0.0825662
22 1 0.0890598 0.237673 0.953393
24 1 0.00614928 0.263717 0.0636044
28 1 0.222322 0.349688 0.169685
26 1 0.315597 0.282801 0.969316
32 1 0.38193 0.269541 0.119962
30 1 0.458837 0.271259 0.992771
36 1 0.545925 0.322535 0.0434897
34 1 0.63996 0.237105 0.985635
40 1 0.773079 0.275709 0.0758547
38 1 0.922115 0.277035 0.958336
41 1 0.9695 0.433412 0.931398
43 1 0.081236 0.426956 0.0558754
45 1 0.25187 0.362359 0.0522315
47 1 0.311547 0.420065 0.148828
49 1 0.454279 0.36014 0.0365284
51 1 0.489828 0.420173 0.112965
53 1 0.566119 0.431506 0.941804
55 1 0.64305 0.349882 0.0744399
57 1 0.828968 0.374721 0.00211857
59 1 0.868369 0.351871 0.168572
42 1 0.0905723 0.538092 0.0299606
44 1 0.93643 0.55213 0.122919
48 1 0.201198 0.496579 0.143298
46 1 0.297809 0.475275 0.97516
52 1 0.340129 0.456776 0.0691732
50 1 0.524752 0.503281 0.028046
56 1 0.550989 0.439698 0.0737198
54 1 0.756314 0.515376 0.00564748
60 1 0.851054 0.431431 0.125229
58 1 0.878911 0.547916 0.972902
61 1 0.0520791 0.615293 0.992214
63 1 0.111598 0.614532 0.141471
65 1 0.258541 0.613903 0.0331572
67 1 0.296341 0.653145 0.0943413
69 1 0.459942 0.617344 0.00106167
71 1 0.50777 0.561132 0.0685803
73 1 0.652148 0.557573 0.999656
75 1 0.731155 0.595103 0.107469
77 1 0.793018 0.647215 0.97963
79 1 0.909233 0.619831 0.130538
62 1 0.101845 0.706977 0.967342
64 1 0.983472 0.721164 0.0452189
68 1 0.230813 0.695639 0.0893532
66 1 0.29379 0.710897 0.954841
72 1 0.429153 0.640604 0.112567
70 1 0.523953 0.745821 0.952715
76 1 0.532681 0.697308 0.156728
74 1 0.734826 0.689836 0.015862
80 1 0.744603 0.721022 0.0940723
78 1 0.874456 0.636238 0.983311
81 1 0.953397 0.802242 0.0261327
83 1 0.0399046 0.766231 0.0814669
85 1 0.153682 0.865596 0.980252
87 1 0.356714 0.814257 0.119025
89 1 0.418053 0.736603 0.933062
91 1 0.490393 0.788072 0.133558
93 1 0.582561 0.822467 0.996547
95 1 0.646151 0.737671 0.154326
97 1 0.797945 0.809782 0.936738
99 1 0.935459 0.832588 0.0981995
82 1 0.0439676 0.941424 0.963725
84 1 0.0394839 0.877537 0.149565
88 1 0.191021 0.860531 0.0468282
86 1 0.340406 0.883571 0.0064943
92 1 0.391816 0.940991 0.0897525
90 1 0.466563 0.9238 0.937141
96 1 0.592352 0.904601 0.0513281
94 1 0.670964 0.900818 0.0181482
100 1 0.815902 0.864667 0.0913421
98 1 0.859136 0.843331 0.0353383
101 1 0.952955 0.937249 0.160393
102 1 0.0857006 0.126031 0.235847
105 1 0.13133 0.0364935 0.23329
106 1 0.290597 0.157099 0.139062
109 1 0.425676 0.053211 0.143971
110 1 0.476252 0.13018 0.240406
113 1 0.623888 0.956123 0.220158
114 1 0.725467 0.0531729 0.15256
117 1 0.820967 0.939975 0.158476
118 1 0.903619 0.0990434 0.226798
121 1 0.0641293 0.210565 0.151184
125 1 0.150853 0.209293 0.193729
129 1 0.354249 0.202232 0.169651
133 1 0.585593 0.254572 0.163602
137 1 0.835527 0.149529 0.179296
122 1 0.10651 0.243984 0.255822
126 1 0.273931 0.249508 0.17231
130 1 0.495838 0.271406 0.168157
134 1 0.683791 0.279315 0.21276
138 1 0.884916 0.270471 0.157489
141 1 0.0243826 0.395805 0.224344
145 1 0.203868 0.338618 0.244578
149 1 0.408087 0.371037 0.153671
153 1 0.564305 0.402365 0.160106
157 1 0.743382 0.341442 0.179976
142 1 0.0687872 0.555078 0.216101
146 1 0.288964 0.528045 0.185061
150 1 0.467427 0.44581 0.21128
154 1 0.692008 0.487204 0.190501
158 1 0.896253 0.437386 0.196526
161 1 0.972755 0.65847 0.246718
165 1 0.229584 0.574037 0.196192
169 1 0.391456 0.585525 0.26304