ITEM: TIMESTEP
0
ITEM: NUMBER OF ATOMS
864
ITEM: BOX BOUNDS pp pp pp
0.0000000000000000e+00 1.0077577148295044e+01
0.0000000000000000e+00 1.0077577148295044e+01
0.0000000000000000e+00 1.0077577148295044e+01
ITEM: ATOMS id type xs ys zs
1 1 0 0 0
2 1 0.0833333 0.0833333 0
3 1 0.0833333 0 0.0833333
4 1 0 0.0833333 0.0833333
5 1 0.166667 0 0
6 1 0.25 0.0833333 0
7 1 0.25 0 0.0833333
8 1 0.166667 0.0833333 0.0833333
9 1 0.333333 0 0
10 1 0.416667 0.0833333 0
11 1 0.416667 0 0.0833333
12 1 0.333333 0.0833333 0.0833333
13 1 0.5 0 0
16 1 0.5 0.0833333 0.0833333
14 1 0.583333 0.0833333 0
15 1 0.583333 0 0.0833333
17 1 0.666667 0 0
20 1 0.666667 0.0833333 0.0833333
18 1 0.75 0.0833333 0
19 1 0.75 0 0.0833333
21 1 0.833333 0 0
24 1 0.833333 0.0833333 0.0833333
22 1 0.916667 0.0833333 0
23 1 0.916667 0 0.0833333
25 1 0 0.166667 0
26 1 0.0833333 0.25 0
27 1 0.0833333 0.166667 0.0833333
28 1 0 0.25 0.0833333
29 1 0.166667 0.166667 0
30 1 0.25 0.25 0
31 1 0.25 0.166667 0.0833333
32 1 0.166667 0.25 0.0833333
33 1 0.333333 0.166667 0
34 1 0.416667 0.25 0
35 1 0.416667 0.166667 0.0833333
36 1 0.333333 0.25 0.0833333
37 1 0.5 0.166667 0
40 1 0.5 0.25 0.0833333
38 1 0.583333 0.25 0
39 1 0.583333 0.166667 0.0833333
41 1 0.666667 0.166667 0
44 1 0.666667 0.25 0.0833333
42 1 0.75 0.25 0
43 1 0.75 0.166667 0.0833333
45 1 0.833333 0.166667 0
48 1 0.833333 0.25 0.0833333
46 1 0.916667 0.25 0
47 1 0.916667 0.166667 0.0833333
49 1 0 0.333333 0
50 1 0.0833333 0.416667 0
51 1 0.0833333 0.333333 0.0833333
52 1 0 0.416667 0.0833333
53 1 0.166667 0.333333 0
54 1 0.25 0.416667 0
55 1 0.25 0.333333 0.0833333
56 1 0.166667 0.416667 0.0833333
57 1 0.333333 0.333333 0
58 1 0.416667 0.416667 0
59 1 0.416667 0.333333 0.0833333
60 1 0.333333 0.416667 0.0833333
61 1 0.5 0.333333 0
64 1 0.5 0.416667 0.0833333
62 1 0.583333 0.416667 0
63 1 0.583333 0.333333 0.0833333
65 1 0.666667 0.333333 0
68 1 0.666667 0.416667 0.0833333
66 1 0.75 0.416667 0
67 1 0.75 0.333333 0.0833333
69 1 0.833333 0.333333 0
72 1 0.833333 0.416667 0.0833333
70 1 0.916667 0.416667 0
71 1 0.916667 0.333333 0.0833333
73 1 0 0.5 0
75 1 0.0833333 0.5 0.0833333
77 1 0.166667 0.5 0
79 1 0.25 0.5 0.0833333
81 1 0.333333 0.5 0
83 1 0.416667 0.5 0.0833333
85 1 0.5 0.5 0
87 1 0.583333 0.5 0.0833333
89 1 0.666667 0.5 0
91 1 0.75 0.5 0.0833333
93 1 0.833333 0.5 0
95 1 0.916667 0.5 0.0833333
74 1 0.0833333 0.583333 0
76 1 0 0.583333 0.0833333
97 1 0 0.666667 0
99 1 0.0833333 0.666667 0.0833333
78 1 0.25 0.583333 0
80 1 0.166667 0.583333 0.0833333
101 1 0.166667 0.666667 0
103 1 0.25 0.666667 0.0833333
82 1 0.416667 0.583333 0
84 1 0.333333 0.583333 0.0833333
105 1 0.333333 0.666667 0
107 1 0.416667 0.666667 0.0833333
88 1 0.5 0.583333 0.0833333
109 1 0.5 0.666667 0
86 1 0.583333 0.583333 0
92 1 0.666667 0.583333 0.0833333
111 1 0.583333 0.666667 0.0833333
113 1 0.666667 0.666667 0
90 1 0.75 0.583333 0
96 1 0.833333 0.583333 0.0833333
115 1 0.75 0.666667 0.0833333
117 1 0.833333 0.666667 0
94 1 0.916667 0.583333 0
119 1 0.916667 0.666667 0.0833333
98 1 0.0833333 0.75 0
100 1 0 0.75 0.0833333
121 1 0 0.833333 0
123 1 0.0833333 0.833333 0.0833333
102 1 0.25 0.75 0
104 1 0.166667 0.75 0.0833333
125 1 0.166667 0.833333 0
127 1 0.25 0.833333 0.0833333
106 1 0.416667 0.75 0
108 1 0.333333 0.75 0.0833333
129 1 0.333333 0.833333 0
131 1 0.416667 0.833333 0.0833333
112 1 0.5 0.75 0.0833333
133 1 0.5 0.833333 0
110 1 0.583333 0.75 0
116 1 0.666667 0.75 0.0833333
135 1 0.583333 0.833333 0.0833333
137 1 0.666667 0.833333 0
114 1 0.75 0.75 0
120 1 0.833333 0.75 0.0833333
139 1 0.75 0.833333 0.0833333
141 1 0.833333 0.833333 0
118 1 0.916667 0.75 0
143 1 0.916667 0.833333 0.0833333
122 1 0.0833333 0.916667 0
124 1 0 0.916667 0.0833333
126 1 0.25 0.916667 0
128 1 0.166667 0.916667 0.0833333
130 1 0.416667 0.916667 0
132 1 0.333333 0.916667 0.0833333
136 1 0.5 0.916667 0.0833333
134 1 0.583333 0.916667 0
140 1 0.666667 0.916667 0.0833333
138 1 0.75 0.916667 0
144 1 0.833333 0.916667 0.0833333
142 1 0.916667 0.916667 0
145 1 0 0 0.166667
146 1 0.0833333 0.0833333 0.166667
147 1 0.0833333 0 0.25
148 1 0 0.0833333 0.25
149 1 0.166667 0 0.166667
150 1 0.25 0.0833333 0.166667
151 1 0.25 0 0.25
152 1 0.166667 0.0833333 0.25
153 1 0.333333 0 0.166667
154 1 0.416667 0.0833333 0.166667
155 1 0.416667 0 0.25
156 1 0.333333 0.0833333 0.25
157 1 0.5 0 0.166667
160 1 0.5 0.0833333 0.25
158 1 0.583333 0.0833333 0.166667
159 1 0.583333 0 0.25
161 1 0.666667 0 0.166667
164 1 0.666667 0.0833333 0.25
162 1 0.75 0.0833333 0.166667
163 1 0.75 0 0.25
165 1 0.833333 0 0.166667
168 1 0.833333 0.0833333 0.25
166 1 0.916667 0.0833333 0.166667
167 1 0.916667 0 0.25
169 1 0 0.166667 0.166667
170 1 0.0833333 0.25 0.166667
171 1 0.0833333 0.166667 0.25
172 1 0 0.25 0.25
173 1 0.166667 0.166667 0.166667
174 1 0.25 0.25 0.166667
175 1 0.25 0.166667 0.25
176 1 0.166667 0.25 0.25
177 1 0.333333 0.166667 0.166667
178 1 0.416667 0.25 0.166667
179 1 0.416667 0.166667 0.25
180 1 0.333333 0.25 0.25
181 1 0.5 0.166667 0.166667
184 1 0.5 0.25 0.25
182 1 0.583333 0.25 0.166667
183 1 0.583333 0.166667 0.25
185 1 0.666667 0.166667 0.166667
188 1 0.666667 0.25 0.25
186 1 0.75 0.25 0.166667
187 1 0.75 0.166667 0.25
189 1 0.833333 0.166667 0.166667
192 1 0.833333 0.25 0.25
190 1 0.916667 0.25 0.166667
191 1 0.916667 0.166667 0.25
193 1 0 0.333333 0.166667
194 1 0.0833333 0.416667 0.166667
195 1 0.0833333 0.333333 0.25
196 1 0 0.416667 0.25
197 1 0.166667 0.333333 0.166667
198 1 0.25 0.416667 0.166667
199 1 0.25 0.333333 0.25
200 1 0.166667 0.416667 0.25
201 1 0.333333 0.333333 0.166667
202 1 0.416667 0.416667 0.166667
203 1 0.416667 0.333333 0.25
204 1 0.333333 0.416667 0.25
205 1 0.5 0.333333 0.166667
208 1 0.5 0.416667 0.25
206 1 0.583333 0.416667 0.166667
207 1 0.583333 0.333333 0.25
209 1 0.666667 0.333333 0.166667
212 1 0.666667 0.416667 0.25
210 1 0.75 0.416667 0.166667
211 1 0.75 0.333333 0.25
213 1 0.833333 0.333333 0.166667
216 1 0.833333 0.416667 0.25
214 1 0.916667 0.416667 0.166667
215 1 0.916667 0.333333 0.25
217 1 0 0.5 0.166667
219 1 0.0833333 0.5 0.25
221 1 0.166667 0.5 0.166667
223 1 0.25 0.5 0.25
225 1 0.333333 0.5 0.166667
227 1 0.416667 0.5 0.25
229 1 0.5 0.5 0.166667
231 1 0.583333 0.5 0.25
233 1 0.666667 0.5 0.166667
235 1 0.75 0.5 0.25
237 1 0.833333 0.5 0.166667
239 1 0.916667 0.5 0.25
218 1 0.0833333 0.583333 0.166667
220 1 0 0.583333 0.25
241 1 0 0.666667 0.166667
243 1 0.0833333 0.666667 0.25
222 1 0.25 0.583333 0.166667
224 1 0.166667 0.583333 0.25
245 1 0.166667 0.666667 0.166667
247 1 0.25 0.666667 0.25
226 1 0.416667 0.583333 0.166667
228 1 0.333333 0.583333 0.25
249 1 0.333333 0.666667 0.166667
251 1 0.416667 0.666667 0.25
232 1 0.5 0.583333 0.25
253 1 0.5 0.666667 0.166667
230 1 0.583333 0.583333 0.166667
236 1 0.666667 0.583333 0.25
255 1 0.583333 0.666667 0.25
257 1 0.666667 0.666667 0.166667
234 1 0.75 0.583333 0.166667
240 1 0.833333 0.583333 0.25
259 1 0.75 0.666667 0.25
261 1 0.833333 0.666667 0.166667
238 1 0.916667 0.583333 0.166667
263 1 0.916667 0.666667 0.25
242 1 0.0833333 0.75 0.166667
244 1 0 0.75 0.25
265 1 0 0.833333 0.166667
267 1 0.0833333 0.833333 0.25
246 1 0.25 0.75 0.166667
248 1 0.166667 0.75 0.25
269 1 0.166667 0.833333 0.166667
271 1 0.25 0.833333 0.25
250 1 0.416667 0.75 0.166667
252 1 0.333333 0.75 0.25
273 1 0.333333 0.833333 0.166667
275 1 0.416667 0.833333 0.25
256 1 0.5 0.75 0.25
277 1 0.5 0.833333 0.166667
254 1 0.583333 0.75 0.166667
260 1 0.666667 0.75 0.25
279 1 0.583333 0.833333 0.25
281 1 0.666667 0.833333 0.166667
258 1 0.75 0.75 0.166667
264 1 0.833333 0.75 0.25
283 1 0.75 0.833333 0.25
285 1 0.833333 0.833333 0.166667
262 1 0.916667 0.75 0.166667
287 1 0.916667 0.833333 0.25
266 1 0.0833333 0.916667 0.166667
268 1 0 0.916667 0.25
270 1 0.25 0.916667 0.166667
272 1 0.166667 0.916667 0.25
274 1 0.416667 0.916667 0.166667
276 1 0.333333 0.916667 0.25
280 1 0.5 0.916667 0.25
278 1 0.583333 0.916667 0.166667
284 1 0.666667 0.916667 0.25
282 1 0.75 0.916667 0.166667
288 1 0.833333 0.916667 0.25
286 1 0.916667 0.916667 0.166667
289 1 0 0 0.333333
290 1 0.0833333 0.0833333 0.333333
291 1 0.0833333 0 0.416667
292 1 0 0.0833333 0.416667
293 1 0.166667 0 0.333333
294 1 0.25 0.0833333 0.333333
295 1 0.25 0 0.416667
296 1 0.166667 0.0833333 0.416667
297 1 0.333333 0 0.333333
298 1 0.416667 0.0833333 0.333333
299 1 0.416667 0 0.416667
300 1 0.333333 0.0833333 0.416667
301 1 0.5 0 0.333333
304 1 0.5 0.0833333 0.416667
302 1 0.583333 0.0833333 0.333333
303 1 0.583333 0 0.416667
305 1 0.666667 0 0.333333
308 1 0.666667 0.0833333 0.416667
306 1 0.75 0.0833333 0.333333
307 1 0.75 0 0.416667
309 1 0.833333 0 0.333333
312 1 0.833333 0.0833333 0.416667
310 1 0.916667 0.0833333 0.333333
311 1 0.916667 0 0.416667
313 1 0 0.166667 0.333333
314 1 0.0833333 0.25 0.333333
315 1 0.0833333 0.166667 0.416667
316 1 0 0.25 0.416667
317 1 0.166667 0.166667 0.333333
318 1 0.25 0.25 0.333333
319 1 0.25 0.166667 0.416667
320 1 0.166667 0.25 0.416667
321 1 0.333333 0.166667 0.333333
322 1 0.416667 0.25 0.333333
323 1 0.416667 0.166667 0.416667
324 1 0.333333 0.25 0.416667
325 1 0.5 0.166667 0.333333
328 1 0.5 0.25 0.416667
326 1 0.583333 0.25 0.333333
327 1 0.583333 0.166667 0.416667
329 1 0.666667 0.166667 0.333333
332 1 0.666667 0.25 0.416667
330 1 0.75 0.25 0.333333
331 1 0.75 0.166667 0.416667
333 1 0.833333 0.166667 0.333333
336 1 0.833333 0.25 0.416667
334 1 0.916667 0.25 0.333333
335 1 0.916667 0.166667 0.416667
337 1 0 0.333333 0.333333
338 1 0.0833333 0.416667 0.333333
339 1 0.0833333 0.333333 0.416667
340 1 0 0.416667 0.416667
341 1 0.166667 0.333333 0.333333
342 1 0.25 0.416667 0.333333
343 1 0.25 0.333333 0.416667
344 1 0.166667 0.416667 0.416667
345 1 0.333333 0.333333 0.333333
346 1 0.416667 0.416667 0.333333
347 1 0.416667 0.333333 0.416667
348 1 0.333333 0.416667 0.416667
349 1 0.5 0.333333 0.333333
352 1 0.5 0.416667 0.416667
350 1 0.583333 0.416667 0.333333
351 1 0.583333 0.333333 0.416667
353 1 0.666667 0.333333 0.333333
356 1 0.666667 0.416667 0.416667
354 1 0.75 0.416667 0.333333
355 1 0.75 0.333333 0.416667
357 1 0.833333 0.333333 0.333333
360 1 0.833333 0.416667 0.416667
358 1 0.916667 0.416667 0.333333
359 1 0.916667 0.333333 0.416667
361 1 0 0.5 0.333333
363 1 0.0833333 0.5 0.416667
365 1 0.166667 0.5 0.333333
367 1 0.25 0.5 0.416667
369 1 0.333333 0.5 0.333333
371 1 0.416667 0.5 0.416667
373 1 0.5 0.5 0.333333
375 1 0.583333 0.5 0.416667
377 1 0.666667 0.5 0.333333
379 1 0.75 0.5 0.416667
381 1 0.833333 0.5 0.333333
383 1 0.916667 0.5 0.416667
362 1 0.0833333 0.583333 0.333333
364 1 0 0.583333 0.416667
385 1 0 0.666667 0.333333
387 1 0.0833333 0.666667 0.416667
366 1 0.25 0.583333 0.333333
368 1 0.166667 0.583333 0.416667
389 1 0.166667 0.666667 0.333333
391 1 0.25 0.666667 0.416667
370 1 0.416667 0.583333 0.333333
372 1 0.333333 0.583333 0.416667
393 1 0.333333 0.666667 0.333333
395 1 0.416667 0.666667 0.416667
376 1 0.5 0.583333 0.416667
397 1 0.5 0.666667 0.333333
374 1 0.583333 0.583333 0.333333
380 1 0.666667 0.583333 0.416667
399 1 0.583333 0.666667 0.416667
401 1 0.666667 0.666667 0.333333
378 1 0.75 0.583333 0.333333
384 1 0.833333 0.583333 0.416667
403 1 0.75 0.666667 0.416667
405 1 0.833333 0.666667 0.333333
382 1 0.916667 0.583333 0.333333
407 1 0.916667 0.666667 0.416667
386 1 0.0833333 0.75 0.333333
388 1 0 0.75 0.416667
409 1 0 0.833333 0.333333
411 1 0.0833333 0.833333 0.416667
390 1 0.25 0.75 0.333333
392 1 0.166667 0.75 0.416667
413 1 0.166667 0.833333 0.333333
415 1 0.25 0.833333 0.416667
394 1 0.416667 0.75 0.333333
396 1 0.333333 0.75 0.416667
417 1 0.333333 0.833333 0.333333
419 1 0.416667 0.833333 0.416667
400 1 0.5 0.75 0.416667
421 1 0.5 0.833333 0.333333
398 1 0.583333 0.75 0.333333
404 1 0.666667 0.75 0.416667
423 1 0.583333 0.833333 0.416667
425 1 0.666667 0.833333 0.333333
402 1 0.75 0.75 0.333333
408 1 0.833333 0.75 0.416667
427 1 0.75 0.833333 0.416667
429 1 0.833333 0.833333 0.333333
406 1 0.916667 0.75 0.333333
431 1 0.916667 0.833333 0.416667
410 1 0.0833333 0.916667 0.333333
412 1 0 0.916667 0.416667
414 1 0.25 0.916667 0.333333
416 1 0.166667 0.916667 0.416667
418 1 0.416667 0.916667 0.333333
420 1 0.333333 0.916667 0.416667
424 1 0.5 0.916667 0.416667
422 1 0.583333 0.916667 0.333333
428 1 0.666667 0.916667 0.416667
426 1 0.75 0.916667 0.333333
432 1 0.833333 0.916667 0.416667
430 1 0.916667 0.916667 0.333333
433 1 0 0 0.5
434 1 0.0833333 0.0833333 0.5
437 1 0.166667 0 0.5
438 1 0.25 0.0833333 0.5
441 1 0.333333 0 0.5
442 1 0.416667 0.0833333 0.5
445 1 0.5 0 0.5
446 1 0.583333 0.0833333 0.5
449 1 0.666667 0 0.5
450 1 0.75 0.0833333 0.5
453 1 0.833333 0 0.5
454 1 0.916667 0.0833333 0.5
457 1 0 0.166667 0.5
458 1 0.0833333 0.25 0.5
461 1 0.166667 0.166667 0.5
462 1 0.25 0.25 0.5
465 1 0.333333 0.166667 0.5
466 1 0.416667 0.25 0.5
469 1 0.5 0.166667 0.5
470 1 0.583333 0.25 0.5
473 1 0.666667 0.166667 0.5
474 1 0.75 0.25 0.5
477 1 0.833333 0.166667 0.5
478 1 0.916667 0.25 0.5
481 1 0 0.333333 0.5
482 1 0.0833333 0.416667 0.5
485 1 0.166667 0.333333 0.5
486 1 0.25 0.416667 0.5
489 1 0.333333 0.333333 0.5
490 1 0.416667 0.416667 0.5
493 1 0.5 0.333333 0.5
494 1 0.583333 0.416667 0.5
497 1 0.666667 0.333333 0.5
498 1 0.75 0.416667 0.5
501 1 0.833333 0.333333 0.5
502 1 0.916667 0.416667 0.5
505 1 0 0.5 0.5
509 1 0.166667 0.5 0.5
513 1 0.333333 0.5 0.5
517 1 0.5 0.5 0.5
521 1 0.666667 0.5 0.5
525 1 0.833333 0.5 0.5
506 1 0.0833333 0.583333 0.5
529 1 0 0.666667 0.5
510 1 0.25 0.583333 0.5
533 1 0.166667 0.666667 0.5
514 1 0.416667 0.583333 0.5
537 1 0.333333 0.666667 0.5
541 1 0.5 0.666667 0.5
518 1 0.583333 0.583333 0.5
545 1 0.666667 0.666667 0.5
522 1 0.75 0.583333 0.5
549 1 0.833333 0.666667 0.5
526 1 0.916667 0.583333 0.5
530 1 0.0833333 0.75 0.5
553 1 0 0.833333 0.5
534 1 0.25 0.75 0.5
557 1 0.166667 0.833333 0.5
538 1 0.416667 0.75 0.5
561 1 0.333333 0.833333 0.5
565 1 0.5 0.833333 0.5
542 1 0.583333 0.75 0.5
569 1 0.666667 0.833333 0.5
546 1 0.75 0.75 0.5
573 1 0.833333 0.833333 0.5
550 1 0.916667 0.75 0.5
554 1 0.0833333 0.916667 0.5
558 1 0.25 0.916667 0.5
562 1 0.416667 0.916667 0.5
566 1 0.583333 0.916667 0.5
570 1 0.75 0.916667 0.5
574 1 0.916667 0.916667 0.5
435 1 0.0833333 0 0.583333
436 1 0 0.0833333 0.583333
577 1 0 0 0.666667
578 1 0.0833333 0.0833333 0.666667
439 1 0.25 0 0.583333
440 1 0.166667 0.0833333 0.583333
581 1 0.166667 0 0.666667
582 1 0.25 0.0833333 0.666667
443 1 0.416667 0 0.583333
444 1 0.333333 0.0833333 0.583333
585 1 0.333333 0 0.666667
586 1 0.416667 0.0833333 0.666667
448 1 0.5 0.0833333 0.583333
589 1 0.5 0 0.666667
447 1 0.583333 0 0.583333
452 1 0.666667 0.0833333 0.583333
590 1 0.583333 0.0833333 0.666667
593 1 0.666667 0 0.666667
451 1 0.75 0 0.583333
456 1 0.833333 0.0833333 0.583333
594 1 0.75 0.0833333 0.666667
597 1 0.833333 0 0.666667
455 1 0.916667 0 0.583333
598 1 0.916667 0.0833333 0.666667
459 1 0.0833333 0.166667 0.583333
460 1 0 0.25 0.583333
601 1 0 0.166667 0.666667
602 1 0.0833333 0.25 0.666667
463 1 0.25 0.166667 0.583333
464 1 0.166667 0.25 0.583333
605 1 0.166667 0.166667 0.666667
606 1 0.25 0.25 0.666667
467 1 0.416667 0.166667 0.583333
468 1 0.333333 0.25 0.583333
609 1 0.333333 0.166667 0.666667
610 1 0.416667 0.25 0.666667
472 1 0.5 0.25 0.583333
613 1 0.5 0.166667 0.666667
471 1 0.583333 0.166667 0.583333
476 1 0.666667 0.25 0.583333
614 1 0.583333 0.25 0.666667
617 1 0.666667 0.166667 0.666667
475 1 0.75 0.166667 0.583333
480 1 0.833333 0.25 0.583333
618 1 0.75 0.25 0.666667
621 1 0.833333 0.166667 0.666667
479 1 0.916667 0.166667 0.583333
622 1 0.916667 0.25 0.666667
483 1 0.0833333 0.333333 0.583333
484 1 0 0.416667 0.583333
625 1 0 0.333333 0.666667
626 1 0.0833333 0.416667 0.666667
487 1 0.25 0.333333 0.583333
488 1 0.166667 0.416667 0.583333
629 1 0.166667 0.333333 0.666667
630 1 0.25 0.416667 0.666667
491 1 0.416667 0.333333 0.583333
492 1 0.333333 0.416667 0.583333
633 1 0.333333 0.333333 0.666667
634 1 0.416667 0.416667 0.666667
496 1 0.5 0.416667 0.583333
637 1 0.5 0.333333 0.666667
495 1 0.583333 0.333333 0.583333
500 1 0.666667 0.416667 0.583333
638 1 0.583333 0.416667 0.666667
641 1 0.666667 0.333333 0.666667
499 1 0.75 0.333333 0.583333
504 1 0.833333 0.416667 0.583333
642 1 0.75 0.416667 0.666667
645 1 0.833333 0.333333 0.666667
503 1 0.916667 0.333333 0.583333
646 1 0.916667 0.416667 0.666667
507 1 0.0833333 0.5 0.583333
649 1 0 0.5 0.666667
511 1 0.25 0.5 0.583333
653 1 0.166667 0.5 0.666667
515 1 0.416667 0.5 0.583333
657 1 0.333333 0.5 0.666667
661 1 0.5 0.5 0.666667
519 1 0.583333 0.5 0.583333
665 1 0.666667 0.5 0.666667
523 1 0.75 0.5 0.583333
669 1 0.833333 0.5 0.666667
527 1 0.916667 0.5 0.583333
508 1 0 0.583333 0.583333
531 1 0.0833333 0.666667 0.583333
650 1 0.0833333 0.583333 0.666667
673 1 0 0.666667 0.666667
512 1 0.166667 0.583333 0.583333
535 1 0.25 0.666667 0.583333
654 1 0.25 0.583333 0.666667
677 1 0.166667 0.666667 0.666667
516 1 0.333333 0.583333 0.583333
539 1 0.416667 0.666667 0.583333
658 1 0.416667 0.583333 0.666667
681 1 0.333333 0.666667 0.666667
520 1 0.5 0.583333 0.583333
685 1 0.5 0.666667 0.666667
524 1 0.666667 0.583333 0.583333
543 1 0.583333 0.666667 0.583333
662 1 0.583333 0.583333 0.666667
689 1 0.666667 0.666667 0.666667
528 1 0.833333 0.583333 0.583333
547 1 0.75 0.666667 0.583333
666 1 0.75 0.583333 0.666667
693 1 0.833333 0.666667 0.666667
551 1 0.916667 0.666667 0.583333
670 1 0.916667 0.583333 0.666667
532 1 0 0.75 0.583333
555 1 0.0833333 0.833333 0.583333
674 1 0.0833333 0.75 0.666667
697 1 0 0.833333 0.666667
536 1 0.166667 0.75 0.583333
559 1 0.25 0.833333 0.583333
678 1 0.25 0.75 0.666667
701 1 0.166667 0.833333 0.666667
540 1 0.333333 0.75 0.583333
563 1 0.416667 0.833333 0.583333
682 1 0.416667 0.75 0.666667
705 1 0.333333 0.833333 0.666667
544 1 0.5 0.75 0.583333
709 1 0.5 0.833333 0.666667
548 1 0.666667 0.75 0.583333
567 1 0.583333 0.833333 0.583333
686 1 0.583333 0.75 0.666667
713 1 0.666667 0.833333 0.666667
552 1 0.833333 0.75 0.583333
571 1 0.75 0.833333 0.583333
690 1 0.75 0.75 0.666667
717 1 0.833333 0.833333 0.666667
575 1 0.916667 0.833333 0.583333
694 1 0.916667 0.75 0.666667
556 1 0 0.916667 0.583333
698 1 0.0833333 0.916667 0.666667
560 1 0.166667 0.916667 0.583333
702 1 0.25 0.916667 0.666667
564 1 0.333333 0.916667 0.583333
706 1 0.416667 0.916667 0.666667
568 1 0.5 0.916667 0.583333
572 1 0.666667 0.916667 0.583333
710 1 0.583333 0.916667 0.666667
576 1 0.833333 0.916667 0.583333
714 1 0.75 0.916667 0.666667
718 1 0.916667 0.916667 0.666667
579 1 0.0833333 0 0.75
580 1 0 0.0833333 0.75
721 1 0 0 0.833333
722 1 0.0833333 0.0833333 0.833333
583 1 0.25 0 0.75
584 1 0.166667 0.0833333 0.75
725 1 0.166667 0 0.833333
726 1 0.25 0.0833333 0.833333
587 1 0.416667 0 0.75
588 1 0.333333 0.0833333 0.75
729 1 0.333333 0 0.833333
730 1 0.416667 0.0833333 0.833333
592 1 0.5 0.0833333 0.75
733 1 0.5 0 0.833333
591 1 0.583333 0 0.75
596 1 0.666667 0.0833333 0.75
734 1 0.583333 0.0833333 0.833333
737 1 0.666667 0 0.833333
595 1 0.75 0 0.75
600 1 0.833333 0.0833333 0.75
738 1 0.75 0.0833333 0.833333
741 1 0.833333 0 0.833333
599 1 0.916667 0 0.75
742 1 0.916667 0.0833333 0.833333
603 1 0.0833333 0.166667 0.75
604 1 0 0.25 0.75
745 1 0 0.166667 0.833333
746 1 0.0833333 0.25 0.833333
607 1 0.25 0.166667 0.75
608 1 0.166667 0.25 0.75
749 1 0.166667 0.166667 0.833333
750 1 0.25 0.25 0.833333
611 1 0.416667 0.166667 0.75
612 1 0.333333 0.25 0.75
753 1 0.333333 0.166667 0.833333
754 1 0.416667 0.25 0.833333
616 1 0.5 0.25 0.75
757 1 0.5 0.166667 0.833333
615 1 0.583333 0.166667 0.75
620 1 0.666667 0.25 0.75
758 1 0.583333 0.25 0.833333
761 1 0.666667 0.166667 0.833333
619 1 0.75 0.166667 0.75
624 1 0.833333 0.25 0.75
762 1 0.75 0.25 0.833333
765 1 0.833333 0.166667 0.833333
623 1 0.916667 0.166667 0.75
766 1 0.916667 0.25 0.833333
627 1 0.0833333 0.333333 0.75
628 1 0 0.416667 0.75
769 1 0 0.333333 0.833333
770 1 0.0833333 0.416667 0.833333
631 1 0.25 0.333333 0.75
632 1 0.166667 0.416667 0.75
773 1 0.166667 0.333333 0.833333
774 1 0.25 0.416667 0.833333
635 1 0.416667 0.333333 0.75
636 1 0.333333 0.416667 0.75
777 1 0.333333 0.333333 0.833333
778 1 0.416667 0.416667 0.833333
640 1 0.5 0.416667 0.75
781 1 0.5 0.333333 0.833333
639 1 0.583333 0.333333 0.75
644 1 0.666667 0.416667 0.75
782 1 0.583333 0.416667 0.833333
785 1 0.666667 0.333333 0.833333
643 1 0.75 0.333333 0.75
648 1 0.833333 0.416667 0.75
786 1 0.75 0.416667 0.833333
789 1 0.833333 0.333333 0.833333
647 1 0.916667 0.333333 0.75
790 1 0.916667 0.416667 0.833333
651 1 0.0833333 0.5 0.75
793 1 0 0.5 0.833333
655 1 0.25 0.5 0.75
797 1 0.166667 0.5 0.833333
659 1 0.416667 0.5 0.75
801 1 0.333333 0.5 0.833333
805 1 0.5 0.5 0.833333
663 1 0.583333 0.5 0.75
809 1 0.666667 0.5 0.833333
667 1 0.75 0.5 0.75
813 1 0.833333 0.5 0.833333
671 1 0.916667 0.5 0.75
652 1 0 0.583333 0.75
675 1 0.0833333 0.666667 0.75
794 1 0.0833333 0.583333 0.833333
817 1 0 0.666667 0.833333
656 1 0.166667 0.583333 0.75
679 1 0.25 0.666667 0.75
798 1 0.25 0.583333 0.833333
821 1 0.166667 0.666667 0.833333
660 1 0.333333 0.583333 0.75
683 1 0.416667 0.666667 0.75
802 1 0.416667 0.583333 0.833333
825 1 0.333333 0.666667 0.833333
664 1 0.5 0.583333 0.75
829 1 0.5 0.666667 0.833333
668 1 0.666667 0.583333 0.75
687 1 0.583333 0.666667 0.75
806 1 0.583333 0.583333 0.833333
833 1 0.666667 0.666667 0.833333
672 1 0.833333 0.583333 0.75
691 1 0.75 0.666667 0.75
810 1 0.75 0.583333 0.833333
837 1 0.833333 0.666667 0.833333
695 1 0.916667 0.666667 0.75
814 1 0.916667 0.583333 0.833333
676 1 0 0.75 0.75
699 1 0.0833333 0.833333 0.75
818 1 0.0833333 0.75 0.833333
841 1 0 0.833333 0.833333
680 1 0.166667 0.75 0.75
703 1 0.25 0.833333 0.75
822 1 0.25 0.75 0.833333
845 1 0.166667 0.833333 0.833333
684 1 0.333333 0.75 0.75
707 1 0.416667 0.833333 0.75
826 1 0.416667 0.75 0.833333
849 1 0.333333 0.833333 0.833333
688 1 0.5 0.75 0.75
853 1 0.5 0.833333 0.833333
692 1 0.666667 0.75 0.75
711 1 0.583333 0.833333 0.75
830 1 0.583333 0.75 0.833333
857 1 0.666667 0.833333 0.833333
696 1 0.833333 0.75 0.75
715 1 0.75 0.833333 0.75
834 1 0.75 0.75 0.833333
861 1 0.833333 0.833333 0.833333
719 1 0.916667 0.833333 0.75
838 1 0.916667 0.75 0.833333
700 1 0 0.916667 0.75
842 1 0.0833333 0.916667 0.833333
704 1 0.166667 0.916667 0.75
846 1 0.25 0.916667 0.833333
708 1 0.333333 0.916667 0.75
850 1 0.416667 0.916667 0.833333
712 1 0.5 0.916667 0.75
716 1 0.666667 0.916667 0.75
854 1 0.583333 0.916667 0.833333
720 1 0.833333 0.916667 0.75
858 1 0.75 0.916667 0.833333
862 1 0.916667 0.916667 0.833333
723 1 0.0833333 0 0.916667
724 1 0 0.0833333 0.916667
727 1 0.25 0 0.916667
728 1 0.166667 0.0833333 0.916667
731 1 0.416667 0 0.916667
732 1 0.333333 0.0833333 0.916667
736 1 0.5 0.0833333 0.916667
735 1 0.583333 0 0.916667
740 1 0.666667 0.0833333 0.916667
739 1 0.75 0 0.916667
744 1 0.833333 0.0833333 0.916667
743 1 0.916667 0 0.916667
747 1 0.0833333 0.166667 0.916667
748 1 0 0.25 0.916667
751 1 0.25 0.166667 0.916667
752 1 0.166667 0.25 0.916667
755 1 0.416667 0.166667 0.916667
756 1 0.333333 0.25 0.916667
760 1 0.5 0.25 0.916667
759 1 0.583333 0.166667 0.916667
764 1 0.666667 0.25 0.916667
763 1 0.75 0.166667 0.916667
768 1 0.833333 0.25 0.916667
767 1 0.916667 0.166667 0.916667
771 1 0.0833333 0.333333 0.916667
772 1 0 0.416667 0.916667
775 1 0.25 0.333333 0.916667
776 1 0.166667 0.416667 0.916667
779 1 0.416667 0.333333 0.916667
780 1 0.333333 0.416667 0.916667
784 1 0.5 0.416667 0.916667
783 1 0.583333 0.333333 0.916667
788 1 0.666667 0.416667 0.916667
787 1 0.75 0.333333 0.916667
792 1 0.833333 0.416667 0.916667
791 1 0.916667 0.333333 0.916667
795 1 0.0833333 0.5 0.916667
799 1 0.25 0.5 0.916667
803 1 0.416667 0.5 0.916667
807 1 0.583333 0.5 0.916667
811 1 0.75 0.5 0.916667
815 1 0.916667 0.5 0.916667
796 1 0 0.583333 0.916667
819 1 0.0833333 0.666667 0.916667
800 1 0.166667 0.583333 0.916667
823 1 0.25 0.666667 0.916667
804 1 0.333333 0.583333 0.916667
827 1 0.416667 0.666667 0.916667
808 1 0.5 0.583333 0.916667
812 1 0.666667 0.583333 0.916667
831 1 0.583333 0.666667 0.916667
816 1 0.833333 0.583333 0.916667
835 1 0.75 0.666667 0.916667
839 1 0.916667 0.666667 0.916667
820 1 0 0.75 0.916667
843 1 0.0833333 0.833333 0.916667
824 1 0.166667 0.75 0.916667
847 1 0.25 0.833333 0.916667
828 1 0.333333 0.75 0.916667
851 1 0.416667 0.833333 0.916667
832 1 0.5 0.75 0.916667
836 1 0.666667 0.75 0.916667
855 1 0.583333 0.833333 0.916667
840 1 0.833333 0.75 0.916667
859 1 0.75 0.833333 0.916667
863 1 0.916667 0.833333 0.916667
844 1 0 0.916667 0.916667
848 1 0.166667 0.916667 0.916667
852 1 0.333333 0.916667 0.916667
856 1 0.5 0.916667 0.916667
860 1 0.666667 0.916667 0.916667
864 1 0.833333 0.916667 0.916667
ITEM: TIMESTEP
50
ITEM: NUMBER OF ATOMS
864
ITEM: BOX BOUNDS pp pp pp
0.0000000000000000e+00 1.0077577148295044e+01
0.0000000000000000e+00 1.0077577148295044e+01
0.0000000000000000e+00 1.0077577148295044e+01
ITEM: ATOMS id type xs ys zs
1 1 0.964888 0.00596843 0.994269
2 1 0.0576403 0.0282848 0.986204
3 1 0.119938 0.0129176 0.11841
4 1 0.0197677 0.0842119 0.0674901
5 1 0.171536 0.987387 0.0284735
6 1 0.277388 0.0551871 0.0194408
7 1 0.260199 0.961099 0.0621294
8 1 0.188894 0.0959294 0.0480022
9 1 0.384041 0.000940574 0.982199
10 1 0.46866 0.0982454 0.979307
11 1 0.419389 0.0137287 0.101011
12 1 0.366652 0.0897037 0.0253055
13 1 0.530049 0.0170442 0.000798506
16 1 0.482256 0.0841951 0.0696052
14 1 0.604674 0.0812738 0.0575388
15 1 0.553424 0.9785 0.0897335
17 1 0.653614 0.000470886 0.996346
20 1 0.683499 0.0440883 0.132459
18 1 0.755923 0.0792062 0.0482095
19 1 0.733604 0.966741 0.0509825
21 1 0.824575 0.0279794 0.979521
24 1 0.837983 0.0490946 0.0974072
22 1 0.892104 0.0731761 0.933522
23 1 0.918806 0.99056 0.0993753
25 1 0.974471 0.161801 0.998712
26 1 0.0666617 0.234305 0.976527
27 1 0.0509962 0.185111 0.0722524
28 1 0.987789 0.284744 0.148419
29 1 0.145552 0.16866 0.996576
30 1 0.219975 0.245285 0.964283
31 1 0.23494 0.198713 0.0977018
32 1 0.125668 0.234307 0.110544
33 1 0.276168 0.158086 0.975423
34 1 0.391298 0.22687 -0.000438493
35 1 0.44674 0.180743 0.117499
36 1 0.298809 0.266133 0.022539
37 1 0.471265 0.191776 0.0282632
40 1 0.511977 0.272827 0.08407
38 1 0.605855 0.272727 0.987256
39 1 0.612502 0.201798 0.0540543
41 1 0.654966 0.191062 0.955304
44 1 0.665104 0.310037 0.0865328
42 1 0.771065 0.281373 0.0319742
43 1 0.735396 0.176971 0.0142488
45 1 0.904233 0.132009 0.0533651
48 1 0.812592 0.258167 0.114886
46 1 0.91145 0.223388 0.976348
47 1 0.968703 0.187127 0.113566
49 1 0.0388939 0.313121 0.0101138
50 1 0.0751854 0.404242 0.0280047
51 1 0.0937705 0.335332 0.118029
52 1 0.973871 0.345668 0.0728798
53 1 0.160659 0.332551 0.960527
54 1 0.275407 0.371891 0.0204451
55 1 0.21468 0.286301 0.0649837
56 1 0.182298 0.399546 0.101407
57 1 0.369412 0.326226 0.9863
58 1 0.381613 0.434738 0.970694
59 1 0.378918 0.252354 0.0946493
60 1 0.354299 0.353225 0.0760663
61 1 0.548065 0.366599 0.999138
64 1 0.467255 0.439704 0.0201152
62 1 0.578143 0.47535 0.00829542
63 1 0.558012 0.418139 0.106363
65 1 0.670531 0.356463 -0.000636112
68 1 0.654127 0.416275 0.067779
66 1 0.788774 0.432758 0.988574
67 1 0.760373 0.373752 0.0965948
69 1 0.836515 0.346775 0.998287
72 1 0.879064 0.34859 0.099243
70 1 0.925192 0.435128 0.0148128
71 1 0.904562 0.257795 0.0800903
73 1 0.988652 0.50191 0.046958
75 1 0.106885 0.462939 0.107448
77 1 0.168185 0.483497 0.034592
79 1 0.253056 0.469769 0.073437
81 1 0.320126 0.510937 0.995378
83 1 0.386958 0.466558 0.0715076
85 1 0.42658 0.548447 0.999752
87 1 0.65776 0.532531 0.085416
89 1 0.671108 0.478661 0.959687
91 1 0.760845 0.465439 0.0797556
93 1 0.859567 0.507862 0.00163422
95 1 0.917243 0.462592 0.110525
74 1 0.0476387 0.609292 0.99899
76 1 0.948609 0.585262 0.120801
97 1 0.977427 0.684507 0.974411
99 1 0.085875 0.669078 0.0966408
78 1 0.241544 0.584839 0.981989
80 1 0.174302 0.591056 0.1117
101 1 0.164899 0.656262 0.997928
103 1 0.263972 0.654043 0.0704651
82 1 0.354595 0.615259 0.00707312
84 1 0.31681 0.582666 0.0951152
105 1 0.310994 0.702489 0.000507564
107 1 0.389224 0.678044 0.0617054
88 1 0.507927 0.589765 0.0650504
109 1 0.532083 0.670515 0.999139
86 1 0.622609 0.565992 0.990715
92 1 0.667689 0.638864 0.076825
111 1 0.587071 0.691158 0.0824948
113 1 0.636479 0.673658 0.975286
90 1 0.764532 0.562699 0.96163
96 1 0.805116 0.618733 0.0298716
115 1 0.775301 0.677744 0.125532
117 1 0.870857 0.638474 0.962711
94 1 0.960045 0.580611 0.00886455
119 1 0.880829 0.650152 0.0876418
98 1 0.0810594 0.724534 0.971972
100 1 0.990421 0.687512 0.0708311
121 1 0.0198638 0.819616 0.975695
123 1 0.0761678 0.827361 0.0724602
102 1 0.216523 0.740525 0.0259875
104 1 0.181176 0.78749 0.115906
125 1 0.12871 0.810796 0.977734
127 1 0.25216 0.852814 0.0723571
106 1 0.381838 0.797765 0.956686
108 1 0.351478 0.799099 0.0928032
129 1 0.304489 0.861109 0.972414
131 1 0.425226 0.845163 0.0653532
112 1 0.45902 0.750857 0.0372709
133 1 0.511486 0.839591 0.0175167
110 1 0.595448 0.78699 0.0502382
116 1 0.703425 0.72664 0.0812502
135 1 0.535579 0.865184 0.116038
137 1 0.722999 0.804591 1.00023
114 1 0.767841 0.678035 0.957812
120 1 0.822001 0.739858 0.0375982
139 1 0.778725 0.831008 0.0770383
141 1 0.873859 0.830327 0.0247168
118 1 0.932569 0.754071 0.0224802
143 1 0.973435 0.862147 0.0516545
122 1 0.0975914 0.925186 0.996501
124 1 0.01138 0.950207 0.0786789
126 1 0.202502 0.898792 0.994986
128 1 0.135613 0.905046 0.0795023
130 1 0.395983 0.892946 0.977016
132 1 0.350196 0.927752 0.0525739
136 1 0.463089 0.944342 0.0393657
134 1 0.597196 0.908388 0.0369581
140 1 0.646514 0.953329 0.123357
138 1 0.774002 0.891474 0.978289
144 1 0.846775 0.928408 0.0646397
142 1 0.905301 0.92676 0.994973
145 1 0.00625166 0.00568544 0.167811
146 1 0.0809541 0.0854409 0.172405
147 1 0.0845537 0.000112242 0.221345
148 1 0.981194 0.0887705 0.241232
149 1 0.180523 0.982936 0.200449
150 1 0.21046 0.0413195 0.142332
151 1 0.273075 0.988089 0.225405
152 1 0.181861 0.0784033 0.23413
153 1 0.302798 0.0634914 0.117099
154 1 0.398528 0.0976017 0.145703
155 1 0.412735 0.969708 0.234525
156 1 0.295862 0.0835758 0.23501
157 1 0.496505 0.956826 0.171441
160 1 0.453686 0.0552537 0.289041