ITEM: TIMESTEP
0
ITEM: NUMBER OF ATOMS
864
ITEM: BOX BOUNDS pp pp pp
0.0000000000000000e+00 1.0077577148295044e+01
0.0000000000000000e+00 1.0077577148295044e+01
0.0000000000000000e+00 1.0077577148295044e+01
ITEM: ATOMS id type xs ys zs
1 1 0 0 0
2 1 0.0833333 0.0833333 0
3 1 0.0833333 0 0.0833333
4 1 0 0.0833333 0.0833333
5 1 0.166667 0 0
6 1 0.25 0.0833333 0
7 1 0.25 0 0.0833333
8 1 0.166667 0.0833333 0.0833333
9 1 0.333333 0 0
10 1 0.416667 0.0833333 0
11 1 0.416667 0 0.0833333
12 1 0.333333 0.0833333 0.0833333
13 1 0.5 0 0
16 1 0.5 0.0833333 0.0833333
14 1 0.583333 0.0833333 0
15 1 0.583333 0 0.0833333
17 1 0.666667 0 0
20 1 0.666667 0.0833333 0.0833333
18 1 0.75 0.0833333 0
19 1 0.75 0 0.0833333
21 1 0.833333 0 0
24 1 0.833333 0.0833333 0.0833333
22 1 0.916667 0.0833333 0
23 1 0.916667 0 0.0833333
25 1 0 0.166667 0
26 1 0.0833333 0.25 0
27 1 0.0833333 0.166667 0.0833333
28 1 0 0.25 0.0833333
29 1 0.166667 0.166667 0
30 1 0.25 0.25 0
31 1 0.25 0.166667 0.0833333
32 1 0.166667 0.25 0.0833333
33 1 0.333333 0.166667 0
34 1 0.416667 0.25 0
35 1 0.416667 0.166667 0.0833333
36 1 0.333333 0.25 0.0833333
37 1 0.5 0.166667 0
40 1 0.5 0.25 0.0833333
38 1 0.583333 0.25 0
39 1 0.583333 0.166667 0.0833333
41 1 0.666667 0.166667 0
44 1 0.666667 0.25 0.0833333
42 1 0.75 0.25 0
43 1 0.75 0.166667 0.0833333
45 1 0.833333 0.166667 0
48 1 0.833333 0.25 0.0833333
46 1 0.916667 0.25 0
47 1 0.916667 0.166667 0.0833333
49 1 0 0.333333 0
50 1 0.0833333 0.416667 0
51 1 0.0833333 0.333333 0.0833333
52 1 0 0.416667 0.0833333
53 1 0.166667 0.333333 0
54 1 0.25 0.416667 0
55 1 0.25 0.333333 0.0833333
56 1 0.166667 0.416667 0.0833333
57 1 0.333333 0.333333 0
58 1 0.416667 0.416667 0
59 1 0.416667 0.333333 0.0833333
60 1 0.333333 0.416667 0.0833333
61 1 0.5 0.333333 0
64 1 0.5 0.416667 0.0833333
62 1 0.583333 0.416667 0
63 1 0.583333 0.333333 0.0833333
65 1 0.666667 0.333333 0
68 1 0.666667 0.416667 0.0833333
66 1 0.75 0.416667 0
67 1 0.75 0.333333 0.0833333
69 1 0.833333 0.333333 0
72 1 0.833333 0.416667 0.0833333
70 1 0.916667 0.416667 0
71 1 0.916667 0.333333 0.0833333
73 1 0 0.5 0
75 1 0.0833333 0.5 0.0833333
77 1 0.166667 0.5 0
79 1 0.25 0.5 0.0833333
81 1 0.333333 0.5 0
83 1 0.416667 0.5 0.0833333
85 1 0.5 0.5 0
87 1 0.583333 0.5 0.0833333
89 1 0.666667 0.5 0
91 1 0.75 0.5 0.0833333
93 1 0.833333 0.5 0
95 1 0.916667 0.5 0.0833333
74 1 0.0833333 0.583333 0
76 1 0 0.583333 0.0833333
97 1 0 0.666667 0
99 1 0.0833333 0.666667 0.0833333
78 1 0.25 0.583333 0
80 1 0.166667 0.583333 0.0833333
101 1 0.166667 0.666667 0
103 1 0.25 0.666667 0.0833333
82 1 0.416667 0.583333 0
84 1 0.333333 0.583333 0.0833333
105 1 0.333333 0.666667 0
107 1 0.416667 0.666667 0.0833333
88 1 0.5 0.583333 0.0833333
109 1 0.5 0.666667 0
86 1 0.583333 0.583333 0
92 1 0.666667 0.583333 0.0833333
111 1 0.583333 0.666667 0.0833333
113 1 0.666667 0.666667 0
90 1 0.75 0.583333 0
96 1 0.833333 0.583333 0.0833333
115 1 0.75 0.666667 0.0833333
117 1 0.833333 0.666667 0
94 1 0.916667 0.583333 0
119 1 0.916667 0.666667 0.0833333
98 1 0.0833333 0.75 0
100 1 0 0.75 0.0833333
121 1 0 0.833333 0
123 1 0.0833333 0.833333 0.0833333
102 1 0.25 0.75 0
104 1 0.166667 0.75 0.0833333
125 1 0.166667 0.833333 0
127 1 0.25 0.833333 0.0833333
106 1 0.416667 0.75 0
108 1 0.333333 0.75 0.0833333
129 1 0.333333 0.833333 0
131 1 0.416667 0.833333 0.0833333
112 1 0.5 0.75 0.0833333
133 1 0.5 0.833333 0
110 1 0.583333 0.75 0
116 1 0.666667 0.75 0.0833333
135 1 0.583333 0.833333 0.0833333
137 1 0.666667 0.833333 0
114 1 0.75 0.75 0
120 1 0.833333 0.75 0.0833333
139 1 0.75 0.833333 0.0833333
141 1 0.833333 0.833333 0
118 1 0.916667 0.75 0
143 1 0.916667 0.833333 0.0833333
122 1 0.0833333 0.916667 0
124 1 0 0.916667 0.0833333
126 1 0.25 0.916667 0
128 1 0.166667 0.916667 0.0833333
130 1 0.416667 0.916667 0
132 1 0.333333 0.916667 0.0833333
136 1 0.5 0.916667 0.0833333
134 1 0.583333 0.916667 0
140 1 0.666667 0.916667 0.0833333
138 1 0.75 0.916667 0
144 1 0.833333 0.916667 0.0833333
142 1 0.916667 0.916667 0
145 1 0 0 0.166667
146 1 0.0833333 0.0833333 0.166667
147 1 0.0833333 0 0.25
148 1 0 0.0833333 0.25
149 1 0.166667 0 0.166667
150 1 0.25 0.0833333 0.166667
151 1 0.25 0 0.25
152 1 0.166667 0.0833333 0.25
153 1 0.333333 0 0.166667
154 1 0.416667 0.0833333 0.166667
155 1 0.416667 0 0.25
156 1 0.333333 0.0833333 0.25
157 1 0.5 0 0.166667
160 1 0.5 0.0833333 0.25
158 1 0.583333 0.0833333 0.166667
159 1 0.583333 0 0.25
161 1 0.666667 0 0.166667
164 1 0.666667 0.0833333 0.25
162 1 0.75 0.0833333 0.166667
163 1 0.75 0 0.25
165 1 0.833333 0 0.166667
168 1 0.833333 0.0833333 0.25
166 1 0.916667 0.0833333 0.166667
167 1 0.916667 0 0.25
169 1 0 0.166667 0.166667
170 1 0.0833333 0.25 0.166667
171 1 0.0833333 0.166667 0.25
172 1 0 0.25 0.25
173 1 0.166667 0.166667 0.166667
174 1 0.25 0.25 0.166667
175 1 0.25 0.166667 0.25
176 1 0.166667 0.25 0.25
177 1 0.333333 0.166667 0.166667
178 1 0.416667 0.25 0.166667
179 1 0.416667 0.166667 0.25
180 1 0.333333 0.25 0.25
181 1 0.5 0.166667 0.166667
184 1 0.5 0.25 0.25
182 1 0.583333 0.25 0.166667
183 1 0.583333 0.166667 0.25
185 1 0.666667 0.166667 0.166667
188 1 0.666667 0.25 0.25
186 1 0.75 0.25 0.166667
187 1 0.75 0.166667 0.25
189 1 0.833333 0.166667 0.166667
192 1 0.833333 0.25 0.25
190 1 0.916667 0.25 0.166667
191 1 0.916667 0.166667 0.25
193 1 0 0.333333 0.166667
194 1 0.0833333 0.416667 0.166667
195 1 0.0833333 0.333333 0.25
196 1 0 0.416667 0.25
197 1 0.166667 0.333333 0.166667
198 1 0.25 0.416667 0.166667
199 1 0.25 0.333333 0.25
200 1 0.166667 0.416667 0.25
201 1 0.333333 0.333333 0.166667
202 1 0.416667 0.416667 0.166667
203 1 0.416667 0.333333 0.25
204 1 0.333333 0.416667 0.25
205 1 0.5 0.333333 0.166667
208 1 0.5 0.416667 0.25
206 1 0.583333 0.416667 0.166667
207 1 0.583333 0.333333 0.25
209 1 0.666667 0.333333 0.166667
212 1 0.666667 0.416667 0.25
210 1 0.75 0.416667 0.166667
211 1 0.75 0.333333 0.25
213 1 0.833333 0.333333 0.166667
216 1 0.833333 0.416667 0.25
214 1 0.916667 0.416667 0.166667
215 1 0.916667 0.333333 0.25
217 1 0 0.5 0.166667
219 1 0.0833333 0.5 0.25
221 1 0.166667 0.5 0.166667
223 1 0.25 0.5 0.25
225 1 0.333333 0.5 0.166667
227 1 0.416667 0.5 0.25
229 1 0.5 0.5 0.166667
231 1 0.583333 0.5 0.25
233 1 0.666667 0.5 0.166667
235 1 0.75 0.5 0.25
237 1 0.833333 0.5 0.166667
239 1 0.916667 0.5 0.25
218 1 0.0833333 0.583333 0.166667
220 1 0 0.583333 0.25
241 1 0 0.666667 0.166667
243 1 0.0833333 0.666667 0.25
222 1 0.25 0.583333 0.166667
224 1 0.166667 0.583333 0.25
245 1 0.166667 0.666667 0.166667
247 1 0.25 0.666667 0.25
226 1 0.416667 0.583333 0.166667
228 1 0.333333 0.583333 0.25
249 1 0.333333 0.666667 0.166667
251 1 0.416667 0.666667 0.25
232 1 0.5 0.583333 0.25
253 1 0.5 0.666667 0.166667
230 1 0.583333 0.583333 0.166667
236 1 0.666667 0.583333 0.25
255 1 0.583333 0.666667 0.25
257 1 0.666667 0.666667 0.166667
234 1 0.75 0.583333 0.166667
240 1 0.833333 0.583333 0.25
259 1 0.75 0.666667 0.25
261 1 0.833333 0.666667 0.166667
238 1 0.916667 0.583333 0.166667
263 1 0.916667 0.666667 0.25
242 1 0.0833333 0.75 0.166667
244 1 0 0.75 0.25
265 1 0 0.833333 0.166667
267 1 0.0833333 0.833333 0.25
246 1 0.25 0.75 0.166667
248 1 0.166667 0.75 0.25
269 1 0.166667 0.833333 0.166667
271 1 0.25 0.833333 0.25
250 1 0.416667 0.75 0.166667
252 1 0.333333 0.75 0.25
273 1 0.333333 0.833333 0.166667
275 1 0.416667 0.833333 0.25
256 1 0.5 0.75 0.25
277 1 0.5 0.833333 0.166667
254 1 0.583333 0.75 0.166667
260 1 0.666667 0.75 0.25
279 1 0.583333 0.833333 0.25
281 1 0.666667 0.833333 0.166667
258 1 0.75 0.75 0.166667
264 1 0.833333 0.75 0.25
283 1 0.75 0.833333 0.25
285 1 0.833333 0.833333 0.166667
262 1 0.916667 0.75 0.166667
287 1 0.916667 0.833333 0.25
266 1 0.0833333 0.916667 0.166667
268 1 0 0.916667 0.25
270 1 0.25 0.916667 0.166667
272 1 0.166667 0.916667 0.25
274 1 0.416667 0.916667 0.166667
276 1 0.333333 0.916667 0.25
280 1 0.5 0.916667 0.25
278 1 0.583333 0.916667 0.166667
284 1 0.666667 0.916667 0.25
282 1 0.75 0.916667 0.166667
288 1 0.833333 0.916667 0.25
286 1 0.916667 0.916667 0.166667
289 1 0 0 0.333333
290 1 0.0833333 0.0833333 0.333333
291 1 0.0833333 0 0.416667
292 1 0 0.0833333 0.416667
293 1 0.166667 0 0.333333
294 1 0.25 0.0833333 0.333333
295 1 0.25 0 0.416667
296 1 0.166667 0.0833333 0.416667
297 1 0.333333 0 0.333333
298 1 0.416667 0.0833333 0.333333
299 1 0.416667 0 0.416667
300 1 0.333333 0.0833333 0.416667
301 1 0.5 0 0.333333
304 1 0.5 0.0833333 0.416667
302 1 0.583333 0.0833333 0.333333
303 1 0.583333 0 0.416667
305 1 0.666667 0 0.333333
308 1 0.666667 0.0833333 0.416667
306 1 0.75 0.0833333 0.333333
307 1 0.75 0 0.416667
309 1 0.833333 0 0.333333
312 1 0.833333 0.0833333 0.416667
310 1 0.916667 0.0833333 0.333333
311 1 0.916667 0 0.416667
313 1 0 0.166667 0.333333
314 1 0.0833333 0.25 0.333333
315 1 0.0833333 0.166667 0.416667
316 1 0 0.25 0.416667
317 1 0.166667 0.166667 0.333333
318 1 0.25 0.25 0.333333
319 1 0.25 0.166667 0.416667
320 1 0.166667 0.25 0.416667
321 1 0.333333 0.166667 0.333333
322 1 0.416667 0.25 0.333333
323 1 0.416667 0.166667 0.416667
324 1 0.333333 0.25 0.416667
325 1 0.5 0.166667 0.333333
328 1 0.5 0.25 0.416667
326 1 0.583333 0.25 0.333333
327 1 0.583333 0.166667 0.416667
329 1 0.666667 0.166667 0.333333
332 1 0.666667 0.25 0.416667
330 1 0.75 0.25 0.333333
331 1 0.75 0.166667 0.416667
333 1 0.833333 0.166667 0.333333
336 1 0.833333 0.25 0.416667
334 1 0.916667 0.25 0.333333
335 1 0.916667 0.166667 0.416667
337 1 0 0.333333 0.333333
338 1 0.0833333 0.416667 0.333333
339 1 0.0833333 0.333333 0.416667
340 1 0 0.416667 0.416667
341 1 0.166667 0.333333 0.333333
342 1 0.25 0.416667 0.333333
343 1 0.25 0.333333 0.416667
344 1 0.166667 0.416667 0.416667
345 1 0.333333 0.333333 0.333333
346 1 0.416667 0.416667 0.333333
347 1 0.416667 0.333333 0.416667
348 1 0.333333 0.416667 0.416667
349 1 0.5 0.333333 0.333333
352 1 0.5 0.416667 0.416667
350 1 0.583333 0.416667 0.333333
351 1 0.583333 0.333333 0.416667
353 1 0.666667 0.333333 0.333333
356 1 0.666667 0.416667 0.416667
354 1 0.75 0.416667 0.333333
355 1 0.75 0.333333 0.416667
357 1 0.833333 0.333333 0.333333
360 1 0.833333 0.416667 0.416667
358 1 0.916667 0.416667 0.333333
359 1 0.916667 0.333333 0.416667
361 1 0 0.5 0.333333
363 1 0.0833333 0.5 0.416667
365 1 0.166667 0.5 0.333333
367 1 0.25 0.5 0.416667
369 1 0.333333 0.5 0.333333
371 1 0.416667 0.5 0.416667
373 1 0.5 0.5 0.333333
375 1 0.583333 0.5 0.416667
377 1 0.666667 0.5 0.333333
379 1 0.75 0.5 0.416667
381 1 0.833333 0.5 0.333333
383 1 0.916667 0.5 0.416667
362 1 0.0833333 0.583333 0.333333
364 1 0 0.583333 0.416667
385 1 0 0.666667 0.333333
387 1 0.0833333 0.666667 0.416667
366 1 0.25 0.583333 0.333333
368 1 0.166667 0.583333 0.416667
389 1 0.166667 0.666667 0.333333
391 1 0.25 0.666667 0.416667
370 1 0.416667 0.583333 0.333333
372 1 0.333333 0.583333 0.416667
393 1 0.333333 0.666667 0.333333
395 1 0.416667 0.666667 0.416667
376 1 0.5 0.583333 0.416667
397 1 0.5 0.666667 0.333333
374 1 0.583333 0.583333 0.333333
380 1 0.666667 0.583333 0.416667
399 1 0.583333 0.666667 0.416667
401 1 0.666667 0.666667 0.333333
378 1 0.75 0.583333 0.333333
384 1 0.833333 0.583333 0.416667
403 1 0.75 0.666667 0.416667
405 1 0.833333 0.666667 0.333333
382 1 0.916667 0.583333 0.333333
407 1 0.916667 0.666667 0.416667
386 1 0.0833333 0.75 0.333333
388 1 0 0.75 0.416667
409 1 0 0.833333 0.333333
411 1 0.0833333 0.833333 0.416667
390 1 0.25 0.75 0.333333
392 1 0.166667 0.75 0.416667
413 1 0.166667 0.833333 0.333333
415 1 0.25 0.833333 0.416667
394 1 0.416667 0.75 0.333333
396 1 0.333333 0.75 0.416667
417 1 0.333333 0.833333 0.333333
419 1 0.416667 0.833333 0.416667
400 1 0.5 0.75 0.416667
421 1 0.5 0.833333 0.333333
398 1 0.583333 0.75 0.333333
404 1 0.666667 0.75 0.416667
423 1 0.583333 0.833333 0.416667
425 1 0.666667 0.833333 0.333333
402 1 0.75 0.75 0.333333
408 1 0.833333 0.75 0.416667
427 1 0.75 0.833333 0.416667
429 1 0.833333 0.833333 0.333333
406 1 0.916667 0.75 0.333333
431 1 0.916667 0.833333 0.416667
410 1 0.0833333 0.916667 0.333333
412 1 0 0.916667 0.416667
414 1 0.25 0.916667 0.333333
416 1 0.166667 0.916667 0.416667
418 1 0.416667 0.916667 0.333333
420 1 0.333333 0.916667 0.416667
424 1 0.5 0.916667 0.416667
422 1 0.583333 0.916667 0.333333
428 1 0.666667 0.916667 0.416667
426 1 0.75 0.916667 0.333333
432 1 0.833333 0.916667 0.416667
430 1 0.916667 0.916667 0.333333
433 1 0 0 0.5
434 1 0.0833333 0.0833333 0.5
437 1 0.166667 0 0.5
438 1 0.25 0.0833333 0.5
441 1 0.333333 0 0.5
442 1 0.416667 0.0833333 0.5
445 1 0.5 0 0.5
446 1 0.583333 0.0833333 0.5
449 1 0.666667 0 0.5
450 1 0.75 0.0833333 0.5
453 1 0.833333 0 0.5
454 1 0.916667 0.0833333 0.5
457 1 0 0.166667 0.5
458 1 0.0833333 0.25 0.5
461 1 0.166667 0.166667 0.5
462 1 0.25 0.25 0.5
465 1 0.333333 0.166667 0.5
466 1 0.416667 0.25 0.5
469 1 0.5 0.166667 0.5
470 1 0.583333 0.25 0.5
473 1 0.666667 0.166667 0.5
474 1 0.75 0.25 0.5
477 1 0.833333 0.166667 0.5
478 1 0.916667 0.25 0.5
481 1 0 0.333333 0.5
482 1 0.0833333 0.416667 0.5
485 1 0.166667 0.333333 0.5
486 1 0.25 0.416667 0.5
489 1 0.333333 0.333333 0.5
490 1 0.416667 0.416667 0.5
493 1 0.5 0.333333 0.5
494 1 0.583333 0.416667 0.5
497 1 0.666667 0.333333 0.5
498 1 0.75 0.416667 0.5
501 1 0.833333 0.333333 0.5
502 1 0.916667 0.416667 0.5
505 1 0 0.5 0.5
509 1 0.166667 0.5 0.5
513 1 0.333333 0.5 0.5
517 1 0.5 0.5 0.5
521 1 0.666667 0.5 0.5
525 1 0.833333 0.5 0.5
506 1 0.0833333 0.583333 0.5
529 1 0 0.666667 0.5
510 1 0.25 0.583333 0.5
533 1 0.166667 0.666667 0.5
514 1 0.416667 0.583333 0.5
537 1 0.333333 0.666667 0.5
541 1 0.5 0.666667 0.5
518 1 0.583333 0.583333 0.5
545 1 0.666667 0.666667 0.5
522 1 0.75 0.583333 0.5
549 1 0.833333 0.666667 0.5
526 1 0.916667 0.583333 0.5
530 1 0.0833333 0.75 0.5
553 1 0 0.833333 0.5
534 1 0.25 0.75 0.5
557 1 0.166667 0.833333 0.5
538 1 0.416667 0.75 0.5
561 1 0.333333 0.833333 0.5
565 1 0.5 0.833333 0.5
542 1 0.583333 0.75 0.5
569 1 0.666667 0.833333 0.5
546 1 0.75 0.75 0.5
573 1 0.833333 0.833333 0.5
550 1 0.916667 0.75 0.5
554 1 0.0833333 0.916667 0.5
558 1 0.25 0.916667 0.5
562 1 0.416667 0.916667 0.5
566 1 0.583333 0.916667 0.5
570 1 0.75 0.916667 0.5
574 1 0.916667 0.916667 0.5
435 1 0.0833333 0 0.583333
436 1 0 0.0833333 0.583333
577 1 0 0 0.666667
578 1 0.0833333 0.0833333 0.666667
439 1 0.25 0 0.583333
440 1 0.166667 0.0833333 0.583333
581 1 0.166667 0 0.666667
582 1 0.25 0.0833333 0.666667
443 1 0.416667 0 0.583333
444 1 0.333333 0.0833333 0.583333
585 1 0.333333 0 0.666667
586 1 0.416667 0.0833333 0.666667
448 1 0.5 0.0833333 0.583333
589 1 0.5 0 0.666667
447 1 0.583333 0 0.583333
452 1 0.666667 0.0833333 0.583333
590 1 0.583333 0.0833333 0.666667
593 1 0.666667 0 0.666667
451 1 0.75 0 0.583333
456 1 0.833333 0.0833333 0.583333
594 1 0.75 0.0833333 0.666667
597 1 0.833333 0 0.666667
455 1 0.916667 0 0.583333
598 1 0.916667 0.0833333 0.666667
459 1 0.0833333 0.166667 0.583333
460 1 0 0.25 0.583333
601 1 0 0.166667 0.666667
602 1 0.0833333 0.25 0.666667
463 1 0.25 0.166667 0.583333
464 1 0.166667 0.25 0.583333
605 1 0.166667 0.166667 0.666667
606 1 0.25 0.25 0.666667
467 1 0.416667 0.166667 0.583333
468 1 0.333333 0.25 0.583333
609 1 0.333333 0.166667 0.666667
610 1 0.416667 0.25 0.666667
472 1 0.5 0.25 0.583333
613 1 0.5 0.166667 0.666667
471 1 0.583333 0.166667 0.583333
476 1 0.666667 0.25 0.583333
614 1 0.583333 0.25 0.666667
617 1 0.666667 0.166667 0.666667
475 1 0.75 0.166667 0.583333
480 1 0.833333 0.25 0.583333
618 1 0.75 0.25 0.666667
621 1 0.833333 0.166667 0.666667
479 1 0.916667 0.166667 0.583333
622 1 0.916667 0.25 0.666667
483 1 0.0833333 0.333333 0.583333
484 1 0 0.416667 0.583333
625 1 0 0.333333 0.666667
626 1 0.0833333 0.416667 0.666667
487 1 0.25 0.333333 0.583333
488 1 0.166667 0.416667 0.583333
629 1 0.166667 0.333333 0.666667
630 1 0.25 0.416667 0.666667
491 1 0.416667 0.333333 0.583333
492 1 0.333333 0.416667 0.583333
633 1 0.333333 0.333333 0.666667
634 1 0.416667 0.416667 0.666667
496 1 0.5 0.416667 0.583333
637 1 0.5 0.333333 0.666667
495 1 0.583333 0.333333 0.583333
500 1 0.666667 0.416667 0.583333
638 1 0.583333 0.416667 0.666667
641 1 0.666667 0.333333 0.666667
499 1 0.75 0.333333 0.583333
504 1 0.833333 0.416667 0.583333
642 1 0.75 0.416667 0.666667
645 1 0.833333 0.333333 0.666667
503 1 0.916667 0.333333 0.583333
646 1 0.916667 0.416667 0.666667
507 1 0.0833333 0.5 0.583333
649 1 0 0.5 0.666667
511 1 0.25 0.5 0.583333
653 1 0.166667 0.5 0.666667
515 1 0.416667 0.5 0.583333
657 1 0.333333 0.5 0.666667
661 1 0.5 0.5 0.666667
519 1 0.583333 0.5 0.583333
665 1 0.666667 0.5 0.666667
523 1 0.75 0.5 0.583333
669 1 0.833333 0.5 0.666667
527 1 0.916667 0.5 0.583333
508 1 0 0.583333 0.583333
531 1 0.0833333 0.666667 0.583333
650 1 0.0833333 0.583333 0.666667
673 1 0 0.666667 0.666667
512 1 0.166667 0.583333 0.583333
535 1 0.25 0.666667 0.583333
654 1 0.25 0.583333 0.666667
677 1 0.166667 0.666667 0.666667
516 1 0.333333 0.583333 0.583333
539 1 0.416667 0.666667 0.583333
658 1 0.416667 0.583333 0.666667
681 1 0.333333 0.666667 0.666667
520 1 0.5 0.583333 0.583333
685 1 0.5 0.666667 0.666667
524 1 0.666667 0.583333 0.583333
543 1 0.583333 0.666667 0.583333
662 1 0.583333 0.583333 0.666667
689 1 0.666667 0.666667 0.666667
528 1 0.833333 0.583333 0.583333
547 1 0.75 0.666667 0.583333
666 1 0.75 0.583333 0.666667
693 1 0.833333 0.666667 0.666667
551 1 0.916667 0.666667 0.583333
670 1 0.916667 0.583333 0.666667
532 1 0 0.75 0.583333
555 1 0.0833333 0.833333 0.583333
674 1 0.0833333 0.75 0.666667
697 1 0 0.833333 0.666667
536 1 0.166667 0.75 0.583333
559 1 0.25 0.833333 0.583333
678 1 0.25 0.75 0.666667
701 1 0.166667 0.833333 0.666667
540 1 0.333333 0.75 0.583333
563 1 0.416667 0.833333 0.583333
682 1 0.416667 0.75 0.666667
705 1 0.333333 0.833333 0.666667
544 1 0.5 0.75 0.583333
709 1 0.5 0.833333 0.666667
548 1 0.666667 0.75 0.583333
567 1 0.583333 0.833333 0.583333
686 1 0.583333 0.75 0.666667
713 1 0.666667 0.833333 0.666667
552 1 0.833333 0.75 0.583333
571 1 0.75 0.833333 0.583333
690 1 0.75 0.75 0.666667
717 1 0.833333 0.833333 0.666667
575 1 0.916667 0.833333 0.583333
694 1 0.916667 0.75 0.666667
556 1 0 0.916667 0.583333
698 1 0.0833333 0.916667 0.666667
560 1 0.166667 0.916667 0.583333
702 1 0.25 0.916667 0.666667
564 1 0.333333 0.916667 0.583333
706 1 0.416667 0.916667 0.666667
568 1 0.5 0.916667 0.583333
572 1 0.666667 0.916667 0.583333
710 1 0.583333 0.916667 0.666667
576 1 0.833333 0.916667 0.583333
714 1 0.75 0.916667 0.666667
718 1 0.916667 0.916667 0.666667
579 1 0.0833333 0 0.75
580 1 0 0.0833333 0.75
721 1 0 0 0.833333
722 1 0.0833333 0.0833333 0.833333
583 1 0.25 0 0.75
584 1 0.166667 0.0833333 0.75
725 1 0.166667 0 0.833333
726 1 0.25 0.0833333 0.833333
587 1 0.416667 0 0.75
588 1 0.333333 0.0833333 0.75
729 1 0.333333 0 0.833333
730 1 0.416667 0.0833333 0.833333
592 1 0.5 0.0833333 0.75
733 1 0.5 0 0.833333
591 1 0.583333 0 0.75
596 1 0.666667 0.0833333 0.75
734 1 0.583333 0.0833333 0.833333
737 1 0.666667 0 0.833333
595 1 0.75 0 0.75
600 1 0.833333 0.0833333 0.75
738 1 0.75 0.0833333 0.833333
741 1 0.833333 0 0.833333
599 1 0.916667 0 0.75
742 1 0.916667 0.0833333 0.833333
603 1 0.0833333 0.166667 0.75
604 1 0 0.25 0.75
745 1 0 0.166667 0.833333
746 1 0.0833333 0.25 0.833333
607 1 0.25 0.166667 0.75
608 1 0.166667 0.25 0.75
749 1 0.166667 0.166667 0.833333
750 1 0.25 0.25 0.833333
611 1 0.416667 0.166667 0.75
612 1 0.333333 0.25 0.75
753 1 0.333333 0.166667 0.833333
754 1 0.416667 0.25 0.833333
616 1 0.5 0.25 0.75
757 1 0.5 0.166667 0.833333
615 1 0.583333 0.166667 0.75
620 1 0.666667 0.25 0.75
758 1 0.583333 0.25 0.833333
761 1 0.666667 0.166667 0.833333
619 1 0.75 0.166667 0.75
624 1 0.833333 0.25 0.75
762 1 0.75 0.25 0.833333
765 1 0.833333 0.166667 0.833333
623 1 0.916667 0.166667 0.75
766 1 0.916667 0.25 0.833333
627 1 0.0833333 0.333333 0.75
628 1 0 0.416667 0.75
769 1 0 0.333333 0.833333
770 1 0.0833333 0.416667 0.833333
631 1 0.25 0.333333 0.75
632 1 0.166667 0.416667 0.75
773 1 0.166667 0.333333 0.833333
774 1 0.25 0.416667 0.833333
635 1 0.416667 0.333333 0.75
636 1 0.333333 0.416667 0.75
777 1 0.333333 0.333333 0.833333
778 1 0.416667 0.416667 0.833333
640 1 0.5 0.416667 0.75
781 1 0.5 0.333333 0.833333
639 1 0.583333 0.333333 0.75
644 1 0.666667 0.416667 0.75
782 1 0.583333 0.416667 0.833333
785 1 0.666667 0.333333 0.833333
643 1 0.75 0.333333 0.75
648 1 0.833333 0.416667 0.75
786 1 0.75 0.416667 0.833333
789 1 0.833333 0.333333 0.833333
647 1 0.916667 0.333333 0.75
790 1 0.916667 0.416667 0.833333
651 1 0.0833333 0.5 0.75
793 1 0 0.5 0.833333
655 1 0.25 0.5 0.75
797 1 0.166667 0.5 0.833333
659 1 0.416667 0.5 0.75
801 1 0.333333 0.5 0.833333
805 1 0.5 0.5 0.833333
663 1 0.583333 0.5 0.75
809 1 0.666667 0.5 0.833333
667 1 0.75 0.5 0.75
813 1 0.833333 0.5 0.833333
671 1 0.916667 0.5 0.75
652 1 0 0.583333 0.75
675 1 0.0833333 0.666667 0.75
794 1 0.0833333 0.583333 0.833333
817 1 0 0.666667 0.833333
656 1 0.166667 0.583333 0.75
679 1 0.25 0.666667 0.75
798 1 0.25 0.583333 0.833333
821 1 0.166667 0.666667 0.833333
660 1 0.333333 0.583333 0.75
683 1 0.416667 0.666667 0.75
802 1 0.416667 0.583333 0.833333
825 1 0.333333 0.666667 0.833333
664 1 0.5 0.583333 0.75
829 1 0.5 0.666667 0.833333
668 1 0.666667 0.583333 0.75
687 1 0.583333 0.666667 0.75
806 1 0.583333 0.583333 0.833333
833 1 0.666667 0.666667 0.833333
672 1 0.833333 0.583333 0.75
691 1 0.75 0.666667 0.75
810 1 0.75 0.583333 0.833333
837 1 0.833333 0.666667 0.833333
695 1 0.916667 0.666667 0.75
814 1 0.916667 0.583333 0.833333
676 1 0 0.75 0.75
699 1 0.0833333 0.833333 0.75
818 1 0.0833333 0.75 0.833333
841 1 0 0.833333 0.833333
680 1 0.166667 0.75 0.75
703 1 0.25 0.833333 0.75
822 1 0.25 0.75 0.833333
845 1 0.166667 0.833333 0.833333
684 1 0.333333 0.75 0.75
707 1 0.416667 0.833333 0.75
826 1 0.416667 0.75 0.833333
849 1 0.333333 0.833333 0.833333
688 1 0.5 0.75 0.75
853 1 0.5 0.833333 0.833333
692 1 0.666667 0.75 0.75
711 1 0.583333 0.833333 0.75
830 1 0.583333 0.75 0.833333
857 1 0.666667 0.833333 0.833333
696 1 0.833333 0.75 0.75
715 1 0.75 0.833333 0.75
834 1 0.75 0.75 0.833333
861 1 0.833333 0.833333 0.833333
719 1 0.916667 0.833333 0.75
838 1 0.916667 0.75 0.833333
700 1 0 0.916667 0.75
842 1 0.0833333 0.916667 0.833333
704 1 0.166667 0.916667 0.75
846 1 0.25 0.916667 0.833333
708 1 0.333333 0.916667 0.75
850 1 0.416667 0.916667 0.833333
712 1 0.5 0.916667 0.75
716 1 0.666667 0.916667 0.75
854 1 0.583333 0.916667 0.833333
720 1 0.833333 0.916667 0.75
858 1 0.75 0.916667 0.833333
862 1 0.916667 0.916667 0.833333
723 1 0.0833333 0 0.916667
724 1 0 0.0833333 0.916667
727 1 0.25 0 0.916667
728 1 0.166667 0.0833333 0.916667
731 1 0.416667 0 0.916667
732 1 0.333333 0.0833333 0.916667
736 1 0.5 0.0833333 0.916667
735 1 0.583333 0 0.916667
740 1 0.666667 0.0833333 0.916667
739 1 0.75 0 0.916667
744 1 0.833333 0.0833333 0.916667
743 1 0.916667 0 0.916667
747 1 0.0833333 0.166667 0.916667
748 1 0 0.25 0.916667
751 1 0.25 0.166667 0.916667
752 1 0.166667 0.25 0.916667
755 1 0.416667 0.166667 0.916667
756 1 0.333333 0.25 0.916667
760 1 0.5 0.25 0.916667
759 1 0.583333 0.166667 0.916667
764 1 0.666667 0.25 0.916667
763 1 0.75 0.166667 0.916667
768 1 0.833333 0.25 0.916667
767 1 0.916667 0.166667 0.916667
771 1 0.0833333 0.333333 0.916667
772 1 0 0.416667 0.916667
775 1 0.25 0.333333 0.916667
776 1 0.166667 0.416667 0.916667
779 1 0.416667 0.333333 0.916667
780 1 0.333333 0.416667 0.916667
784 1 0.5 0.416667 0.916667
783 1 0.583333 0.333333 0.916667
788 1 0.666667 0.416667 0.916667
787 1 0.75 0.333333 0.916667
792 1 0.833333 0.416667 0.916667
791 1 0.916667 0.333333 0.916667
795 1 0.0833333 0.5 0.916667
799 1 0.25 0.5 0.916667
803 1 0.416667 0.5 0.916667
807 1 0.583333 0.5 0.916667
811 1 0.75 0.5 0.916667
815 1 0.916667 0.5 0.916667
796 1 0 0.583333 0.916667
819 1 0.0833333 0.666667 0.916667
800 1 0.166667 0.583333 0.916667
823 1 0.25 0.666667 0.916667
804 1 0.333333 0.583333 0.916667
827 1 0.416667 0.666667 0.916667
808 1 0.5 0.583333 0.916667
812 1 0.666667 0.583333 0.916667
831 1 0.583333 0.666667 0.916667
816 1 0.833333 0.583333 0.916667
835 1 0.75 0.666667 0.916667
839 1 0.916667 0.666667 0.916667
820 1 0 0.75 0.916667
843 1 0.0833333 0.833333 0.916667
824 1 0.166667 0.75 0.916667
847 1 0.25 0.833333 0.916667
828 1 0.333333 0.75 0.916667
851 1 0.416667 0.833333 0.916667
832 1 0.5 0.75 0.916667
836 1 0.666667 0.75 0.916667
855 1 0.583333 0.833333 0.916667
840 1 0.833333 0.75 0.916667
859 1 0.75 0.833333 0.916667
863 1 0.916667 0.833333 0.916667
844 1 0 0.916667 0.916667
848 1 0.166667 0.916667 0.916667
852 1 0.333333 0.916667 0.916667
856 1 0.5 0.916667 0.916667
860 1 0.666667 0.916667 0.916667
864 1 0.833333 0.916667 0.916667
ITEM: TIMESTEP
50
ITEM: NUMBER OF ATOMS
864
ITEM: BOX BOUNDS pp pp pp
0.0000000000000000e+00 1.0077577148295044e+01
0.0000000000000000e+00 1.0077577148295044e+01
0.0000000000000000e+00 1.0077577148295044e+01
ITEM: ATOMS id type xs ys zs
1 1 0.991024 0.992951 0.993543
2 1 0.0777195 0.0594941 0.991357
3 1 0.0833903 0.00305813 0.0899133
4 1 0.0102382 0.0834824 0.0876278
5 1 0.159937 0.994976 0.0160635
6 1 0.250076 0.0771912 0.998123
7 1 0.240077 0.974259 0.0784376
8 1 0.173755 0.0914328 0.0757861
9 1 0.359276 0.00188011 0.998841
10 1 0.437767 0.085203 0.991068
11 1 0.411246 0.000399898 0.0841712
12 1 0.353128 0.0846512 0.0646127
13 1 0.506058 0.00686931 0.997552
16 1 0.487162 0.0794411 0.0873048
14 1 0.589582 0.0918227 0.0212068
15 1 0.566019 0.98099 0.0925042
17 1 0.662879 0.00385096 0.98852
20 1 0.663155 0.0685884 0.0925569
18 1 0.754469 0.0756481 0.00466929
19 1 0.753097 0.988828 0.067574
21 1 0.828158 0.00337786 0.985202
24 1 0.836354 0.0572958 0.0840748
22 1 0.91087 0.0781926 0.970071
23 1 0.92108 0.995505 0.0961237
25 1 0.998537 0.152246 0.00265213
26 1 0.0807053 0.234757 0.995495
27 1 0.07092 0.171689 0.0754549
28 1 0.00022218 0.260567 0.106602
29 1 0.161885 0.165738 0.000438397
30 1 0.239049 0.248504 0.983067
31 1 0.244857 0.166589 0.0881861
32 1 0.155119 0.24275 0.0889429
33 1 0.31281 0.171342 0.98572
34 1 0.408956 0.234618 0.0109684
35 1 0.418156 0.16935 0.095181
36 1 0.313749 0.252733 0.0590082
37 1 0.494109 0.167596 0.00593445
40 1 0.498133 0.258859 0.0855975
38 1 0.588137 0.264772 0.985871
39 1 0.597574 0.187898 0.0752054
41 1 0.657435 0.176796 0.986104
44 1 0.665721 0.279769 0.0849329
42 1 0.754163 0.272272 0.0101893
43 1 0.743376 0.174923 0.0512711
45 1 0.85919 0.150988 0.0249174
48 1 0.829401 0.253418 0.101547
46 1 0.917012 0.233898 0.989291
47 1 0.937435 0.177358 0.103159
49 1 0.0202054 0.321993 0.00870416
50 1 0.0841451 0.412617 0.998724
51 1 0.0815935 0.328092 0.0976545
52 1 0.980184 0.393402 0.079813
53 1 0.162468 0.330739 0.987009
54 1 0.263461 0.403303 0.00459044
55 1 0.228549 0.318176 0.0663314
56 1 0.169351 0.404795 0.0827192
57 1 0.349512 0.333498 0.991987
58 1 0.401626 0.433393 0.983465
59 1 0.40431 0.299057 0.0919291
60 1 0.344895 0.392471 0.087978
61 1 0.523016 0.33734 0.99373
64 1 0.487052 0.43323 0.0527281
62 1 0.577811 0.433563 1.00016
63 1 0.579477 0.363519 0.0980745
65 1 0.670306 0.341729 -1.18393e-06
68 1 0.67004 0.424654 0.0821957
66 1 0.76176 0.419065 0.987667
67 1 0.756098 0.347886 0.0901473
69 1 0.837503 0.337068 0.00103506
72 1 0.856106 0.391231 0.0971778
70 1 0.923614 0.428291 0.997578
71 1 0.912758 0.306206 0.0712067
73 1 0.00897461 0.492748 0.0190615
75 1 0.0864088 0.484186 0.0851491
77 1 0.16061 0.48368 0.00532077
79 1 0.248395 0.492759 0.086294
81 1 0.327703 0.506538 0.00431275
83 1 0.401109 0.488196 0.0822401
85 1 0.476123 0.510782 0.990671
87 1 0.616681 0.512644 0.0843333
89 1 0.669216 0.490506 0.969436
91 1 0.745991 0.49186 0.0834928
93 1 0.843338 0.506422 0.00218988
95 1 0.916918 0.478175 0.086812
74 1 0.0707597 0.587829 0.99545
76 1 0.979289 0.582068 0.096415
97 1 0.992239 0.666806 0.97984
99 1 0.082143 0.673253 0.0878366
78 1 0.245535 0.575092 0.991974
80 1 0.161004 0.585797 0.0958917
101 1 0.170651 0.651862 0.00779066
103 1 0.23933 0.663674 0.0791549
82 1 0.394093 0.598674 0.000760849
84 1 0.326941 0.578155 0.0806731
105 1 0.313128 0.679912 0.00297564
107 1 0.407624 0.683846 0.0820657
88 1 0.493351 0.578616 0.0699985
109 1 0.513438 0.670059 0.997627
86 1 0.60113 0.574096 0.993198
92 1 0.666805 0.602613 0.0798581
111 1 0.582639 0.674056 0.0773317
113 1 0.668137 0.669806 0.988925
90 1 0.761491 0.581012 0.978928
96 1 0.819941 0.589338 0.0725501
115 1 0.76446 0.666933 0.0925092
117 1 0.836767 0.65095 0.975829
94 1 0.928929 0.576839 0.00295817
119 1 0.904284 0.667088 0.079344
98 1 0.0783438 0.736991 0.994496
100 1 0.994595 0.734448 0.0841952
121 1 0.02304 0.823287 0.986832
123 1 0.0910569 0.832143 0.0791647
102 1 0.229794 0.76033 0.00779065
104 1 0.171679 0.773772 0.0942009
125 1 0.150508 0.819193 0.998186
127 1 0.24976 0.843763 0.0818812
106 1 0.406852 0.764961 0.993773
108 1 0.348044 0.766793 0.073297
129 1 0.32575 0.84078 0.980247
131 1 0.417549 0.84612 0.0701431
112 1 0.472641 0.756851 0.0660161
133 1 0.502342 0.832552 0.00469683
110 1 0.579688 0.767986 0.023415
116 1 0.685809 0.740153 0.0757119
135 1 0.563495 0.854743 0.0958285
137 1 0.693336 0.816229 0.00146543
114 1 0.757396 0.722135 0.990654
120 1 0.828349 0.744831 0.0630645
139 1 0.774061 0.835134 0.0787362
141 1 0.850591 0.840071 0.0137994
118 1 0.922363 0.746988 0.00920479
143 1 0.940752 0.851095 0.0716636
122 1 0.0853937 0.921157 0.994745
124 1 0.00993294 0.927272 0.0842418
126 1 0.229941 0.907935 0.996012
128 1 0.155591 0.915672 0.0795111
130 1 0.406348 0.915454 0.991125
132 1 0.339861 0.926384 0.0816943
136 1 0.484591 0.921676 0.0656294
134 1 0.587436 0.912896 0.00955081
140 1 0.658996 0.932206 0.098066
138 1 0.759713 0.905761 0.998197
144 1 0.827231 0.919689 0.0719304
142 1 0.922319 0.911347 0.988729
145 1 0.00574136 0.000692586 0.159462
146 1 0.0835467 0.0881456 0.163563
147 1 0.0756128 0.00493223 0.24201
148 1 0.00584628 0.0725714 0.245074
149 1 0.166136 0.989111 0.176456
150 1 0.236116 0.0717238 0.149566
151 1 0.256504 0.985946 0.234086
152 1 0.176472 0.0751954 0.238586
153 1 0.328203 0.012821 0.148829
154 1 0.40597 0.0901208 0.156738
155 1 0.399433 0.983249 0.24702
156 1 0.319884 0.0822389 0.247024
157 1 0.49927 0.977271 0.179929