ITEM: TIMESTEP
0
ITEM: NUMBER OF ATOMS
2048
ITEM: BOX BOUNDS pp pp pp
0.0000000000000000e+00 2.8920000000000002e+01
0.0000000000000000e+00 2.8920000000000002e+01
0.0000000000000000e+00 2.8920000000000002e+01
ITEM: ATOMS id type xs ys zs
1 1 0 0 0
2 1 0.0625 0.0625 0
3 1 0.0625 0 0.0625
4 1 0 0.0625 0.0625
5 1 0.125 0 0
8 1 0.125 0.0625 0.0625
33 1 0 0.125 0
35 1 0.0625 0.125 0.0625
37 1 0.125 0.125 0
257 1 0 0 0.125
258 1 0.0625 0.0625 0.125
261 1 0.125 0 0.125
289 1 0 0.125 0.125
293 1 0.125 0.125 0.125
6 1 0.1875 0.0625 0
7 1 0.1875 0 0.0625
9 1 0.25 0 0
12 1 0.25 0.0625 0.0625
39 1 0.1875 0.125 0.0625
41 1 0.25 0.125 0
262 1 0.1875 0.0625 0.125
265 1 0.25 0 0.125
297 1 0.25 0.125 0.125
10 1 0.3125 0.0625 0
11 1 0.3125 0 0.0625
13 1 0.375 0 0
16 1 0.375 0.0625 0.0625
43 1 0.3125 0.125 0.0625
45 1 0.375 0.125 0
266 1 0.3125 0.0625 0.125
269 1 0.375 0 0.125
301 1 0.375 0.125 0.125
14 1 0.4375 0.0625 0
15 1 0.4375 0 0.0625
17 1 0.5 0 0
20 1 0.5 0.0625 0.0625
47 1 0.4375 0.125 0.0625
49 1 0.5 0.125 0
270 1 0.4375 0.0625 0.125
273 1 0.5 0 0.125
305 1 0.5 0.125 0.125
18 1 0.5625 0.0625 0
19 1 0.5625 0 0.0625
51 1 0.5625 0.125 0.0625
274 1 0.5625 0.0625 0.125
21 1 0.625 0 0
22 1 0.6875 0.0625 0
23 1 0.6875 0 0.0625
24 1 0.625 0.0625 0.0625
25 1 0.75 0 0
28 1 0.75 0.0625 0.0625
53 1 0.625 0.125 0
55 1 0.6875 0.125 0.0625
57 1 0.75 0.125 0
277 1 0.625 0 0.125
278 1 0.6875 0.0625 0.125
281 1 0.75 0 0.125
309 1 0.625 0.125 0.125
313 1 0.75 0.125 0.125
26 1 0.8125 0.0625 0
27 1 0.8125 0 0.0625
29 1 0.875 0 0
32 1 0.875 0.0625 0.0625
59 1 0.8125 0.125 0.0625
61 1 0.875 0.125 0
282 1 0.8125 0.0625 0.125
285 1 0.875 0 0.125
317 1 0.875 0.125 0.125
30 1 0.9375 0.0625 0
31 1 0.9375 0 0.0625
63 1 0.9375 0.125 0.0625
286 1 0.9375 0.0625 0.125
34 1 0.0625 0.1875 0
36 1 0 0.1875 0.0625
40 1 0.125 0.1875 0.0625
65 1 0 0.25 0
67 1 0.0625 0.25 0.0625
69 1 0.125 0.25 0
290 1 0.0625 0.1875 0.125
321 1 0 0.25 0.125
325 1 0.125 0.25 0.125
38 1 0.1875 0.1875 0
44 1 0.25 0.1875 0.0625
71 1 0.1875 0.25 0.0625
73 1 0.25 0.25 0
294 1 0.1875 0.1875 0.125
329 1 0.25 0.25 0.125
42 1 0.3125 0.1875 0
48 1 0.375 0.1875 0.0625
75 1 0.3125 0.25 0.0625
77 1 0.375 0.25 0
298 1 0.3125 0.1875 0.125
333 1 0.375 0.25 0.125
46 1 0.4375 0.1875 0
52 1 0.5 0.1875 0.0625
79 1 0.4375 0.25 0.0625
81 1 0.5 0.25 0
302 1 0.4375 0.1875 0.125
337 1 0.5 0.25 0.125
50 1 0.5625 0.1875 0
83 1 0.5625 0.25 0.0625
306 1 0.5625 0.1875 0.125
54 1 0.6875 0.1875 0
56 1 0.625 0.1875 0.0625
60 1 0.75 0.1875 0.0625
85 1 0.625 0.25 0
87 1 0.6875 0.25 0.0625
89 1 0.75 0.25 0
310 1 0.6875 0.1875 0.125
341 1 0.625 0.25 0.125
345 1 0.75 0.25 0.125
58 1 0.8125 0.1875 0
64 1 0.875 0.1875 0.0625
91 1 0.8125 0.25 0.0625
93 1 0.875 0.25 0
314 1 0.8125 0.1875 0.125
349 1 0.875 0.25 0.125
62 1 0.9375 0.1875 0
95 1 0.9375 0.25 0.0625
318 1 0.9375 0.1875 0.125
66 1 0.0625 0.3125 0
68 1 0 0.3125 0.0625
72 1 0.125 0.3125 0.0625
97 1 0 0.375 0
99 1 0.0625 0.375 0.0625
101 1 0.125 0.375 0
322 1 0.0625 0.3125 0.125
353 1 0 0.375 0.125
357 1 0.125 0.375 0.125
70 1 0.1875 0.3125 0
76 1 0.25 0.3125 0.0625
103 1 0.1875 0.375 0.0625
105 1 0.25 0.375 0
326 1 0.1875 0.3125 0.125
361 1 0.25 0.375 0.125
74 1 0.3125 0.3125 0
80 1 0.375 0.3125 0.0625
107 1 0.3125 0.375 0.0625
109 1 0.375 0.375 0
330 1 0.3125 0.3125 0.125
365 1 0.375 0.375 0.125
78 1 0.4375 0.3125 0
84 1 0.5 0.3125 0.0625
111 1 0.4375 0.375 0.0625
113 1 0.5 0.375 0
334 1 0.4375 0.3125 0.125
369 1 0.5 0.375 0.125
82 1 0.5625 0.3125 0
115 1 0.5625 0.375 0.0625
338 1 0.5625 0.3125 0.125
86 1 0.6875 0.3125 0
88 1 0.625 0.3125 0.0625
92 1 0.75 0.3125 0.0625
117 1 0.625 0.375 0
119 1 0.6875 0.375 0.0625
121 1 0.75 0.375 0
342 1 0.6875 0.3125 0.125
373 1 0.625 0.375 0.125
377 1 0.75 0.375 0.125
90 1 0.8125 0.3125 0
96 1 0.875 0.3125 0.0625
123 1 0.8125 0.375 0.0625
125 1 0.875 0.375 0
346 1 0.8125 0.3125 0.125
381 1 0.875 0.375 0.125
94 1 0.9375 0.3125 0
127 1 0.9375 0.375 0.0625
350 1 0.9375 0.3125 0.125
98 1 0.0625 0.4375 0
100 1 0 0.4375 0.0625
104 1 0.125 0.4375 0.0625
129 1 0 0.5 0
131 1 0.0625 0.5 0.0625
133 1 0.125 0.5 0
354 1 0.0625 0.4375 0.125
385 1 0 0.5 0.125
389 1 0.125 0.5 0.125
102 1 0.1875 0.4375 0
108 1 0.25 0.4375 0.0625
135 1 0.1875 0.5 0.0625
137 1 0.25 0.5 0
358 1 0.1875 0.4375 0.125
393 1 0.25 0.5 0.125
106 1 0.3125 0.4375 0
112 1 0.375 0.4375 0.0625
139 1 0.3125 0.5 0.0625
141 1 0.375 0.5 0
362 1 0.3125 0.4375 0.125
397 1 0.375 0.5 0.125
110 1 0.4375 0.4375 0
116 1 0.5 0.4375 0.0625
143 1 0.4375 0.5 0.0625
145 1 0.5 0.5 0
366 1 0.4375 0.4375 0.125
401 1 0.5 0.5 0.125
114 1 0.5625 0.4375 0
147 1 0.5625 0.5 0.0625
370 1 0.5625 0.4375 0.125
118 1 0.6875 0.4375 0
120 1 0.625 0.4375 0.0625
124 1 0.75 0.4375 0.0625
149 1 0.625 0.5 0
151 1 0.6875 0.5 0.0625
153 1 0.75 0.5 0
374 1 0.6875 0.4375 0.125
405 1 0.625 0.5 0.125
409 1 0.75 0.5 0.125
122 1 0.8125 0.4375 0
128 1 0.875 0.4375 0.0625
155 1 0.8125 0.5 0.0625
157 1 0.875 0.5 0
378 1 0.8125 0.4375 0.125
413 1 0.875 0.5 0.125
126 1 0.9375 0.4375 0
159 1 0.9375 0.5 0.0625
382 1 0.9375 0.4375 0.125
130 1 0.0625 0.5625 0
132 1 0 0.5625 0.0625
136 1 0.125 0.5625 0.0625
386 1 0.0625 0.5625 0.125
134 1 0.1875 0.5625 0
140 1 0.25 0.5625 0.0625
390 1 0.1875 0.5625 0.125
138 1 0.3125 0.5625 0
144 1 0.375 0.5625 0.0625
394 1 0.3125 0.5625 0.125
142 1 0.4375 0.5625 0
148 1 0.5 0.5625 0.0625
398 1 0.4375 0.5625 0.125
146 1 0.5625 0.5625 0
402 1 0.5625 0.5625 0.125
150 1 0.6875 0.5625 0
152 1 0.625 0.5625 0.0625
156 1 0.75 0.5625 0.0625
406 1 0.6875 0.5625 0.125
154 1 0.8125 0.5625 0
160 1 0.875 0.5625 0.0625
410 1 0.8125 0.5625 0.125
158 1 0.9375 0.5625 0
414 1 0.9375 0.5625 0.125
161 1 0 0.625 0
162 1 0.0625 0.6875 0
163 1 0.0625 0.625 0.0625
164 1 0 0.6875 0.0625
165 1 0.125 0.625 0
168 1 0.125 0.6875 0.0625
193 1 0 0.75 0
195 1 0.0625 0.75 0.0625
197 1 0.125 0.75 0
417 1 0 0.625 0.125
418 1 0.0625 0.6875 0.125
421 1 0.125 0.625 0.125
449 1 0 0.75 0.125
453 1 0.125 0.75 0.125
166 1 0.1875 0.6875 0
167 1 0.1875 0.625 0.0625
169 1 0.25 0.625 0
172 1 0.25 0.6875 0.0625
199 1 0.1875 0.75 0.0625
201 1 0.25 0.75 0
422 1 0.1875 0.6875 0.125
425 1 0.25 0.625 0.125
457 1 0.25 0.75 0.125
170 1 0.3125 0.6875 0
171 1 0.3125 0.625 0.0625
173 1 0.375 0.625 0
176 1 0.375 0.6875 0.0625
203 1 0.3125 0.75 0.0625
205 1 0.375 0.75 0
426 1 0.3125 0.6875 0.125
429 1 0.375 0.625 0.125
461 1 0.375 0.75 0.125
174 1 0.4375 0.6875 0
175 1 0.4375 0.625 0.0625
177 1 0.5 0.625 0
180 1 0.5 0.6875 0.0625
207 1 0.4375 0.75 0.0625
209 1 0.5 0.75 0
430 1 0.4375 0.6875 0.125
433 1 0.5 0.625 0.125
465 1 0.5 0.75 0.125
178 1 0.5625 0.6875 0
179 1 0.5625 0.625 0.0625
211 1 0.5625 0.75 0.0625
434 1 0.5625 0.6875 0.125
181 1 0.625 0.625 0
182 1 0.6875 0.6875 0
183 1 0.6875 0.625 0.0625
184 1 0.625 0.6875 0.0625
185 1 0.75 0.625 0
188 1 0.75 0.6875 0.0625
213 1 0.625 0.75 0
215 1 0.6875 0.75 0.0625
217 1 0.75 0.75 0
437 1 0.625 0.625 0.125
438 1 0.6875 0.6875 0.125
441 1 0.75 0.625 0.125
469 1 0.625 0.75 0.125
473 1 0.75 0.75 0.125
186 1 0.8125 0.6875 0
187 1 0.8125 0.625 0.0625
189 1 0.875 0.625 0
192 1 0.875 0.6875 0.0625
219 1 0.8125 0.75 0.0625
221 1 0.875 0.75 0
442 1 0.8125 0.6875 0.125
445 1 0.875 0.625 0.125
477 1 0.875 0.75 0.125
190 1 0.9375 0.6875 0
191 1 0.9375 0.625 0.0625
223 1 0.9375 0.75 0.0625
446 1 0.9375 0.6875 0.125
194 1 0.0625 0.8125 0
196 1 0 0.8125 0.0625
200 1 0.125 0.8125 0.0625
225 1 0 0.875 0
227 1 0.0625 0.875 0.0625
229 1 0.125 0.875 0
450 1 0.0625 0.8125 0.125
481 1 0 0.875 0.125
485 1 0.125 0.875 0.125
198 1 0.1875 0.8125 0
204 1 0.25 0.8125 0.0625
231 1 0.1875 0.875 0.0625
233 1 0.25 0.875 0
454 1 0.1875 0.8125 0.125
489 1 0.25 0.875 0.125
202 1 0.3125 0.8125 0
208 1 0.375 0.8125 0.0625
235 1 0.3125 0.875 0.0625
237 1 0.375 0.875 0
458 1 0.3125 0.8125 0.125
493 1 0.375 0.875 0.125
206 1 0.4375 0.8125 0
212 1 0.5 0.8125 0.0625
239 1 0.4375 0.875 0.0625
241 1 0.5 0.875 0
462 1 0.4375 0.8125 0.125
497 1 0.5 0.875 0.125
210 1 0.5625 0.8125 0
243 1 0.5625 0.875 0.0625
466 1 0.5625 0.8125 0.125
214 1 0.6875 0.8125 0
216 1 0.625 0.8125 0.0625
220 1 0.75 0.8125 0.0625
245 1 0.625 0.875 0
247 1 0.6875 0.875 0.0625
249 1 0.75 0.875 0
470 1 0.6875 0.8125 0.125
501 1 0.625 0.875 0.125
505 1 0.75 0.875 0.125
218 1 0.8125 0.8125 0
224 1 0.875 0.8125 0.0625
251 1 0.8125 0.875 0.0625
253 1 0.875 0.875 0
474 1 0.8125 0.8125 0.125
509 1 0.875 0.875 0.125
222 1 0.9375 0.8125 0
255 1 0.9375 0.875 0.0625
478 1 0.9375 0.8125 0.125
226 1 0.0625 0.9375 0
228 1 0 0.9375 0.0625
232 1 0.125 0.9375 0.0625
482 1 0.0625 0.9375 0.125
230 1 0.1875 0.9375 0
236 1 0.25 0.9375 0.0625
486 1 0.1875 0.9375 0.125
234 1 0.3125 0.9375 0
240 1 0.375 0.9375 0.0625
490 1 0.3125 0.9375 0.125
238 1 0.4375 0.9375 0
244 1 0.5 0.9375 0.0625
494 1 0.4375 0.9375 0.125
242 1 0.5625 0.9375 0
498 1 0.5625 0.9375 0.125
246 1 0.6875 0.9375 0
248 1 0.625 0.9375 0.0625
252 1 0.75 0.9375 0.0625
502 1 0.6875 0.9375 0.125
250 1 0.8125 0.9375 0
256 1 0.875 0.9375 0.0625
506 1 0.8125 0.9375 0.125
254 1 0.9375 0.9375 0
510 1 0.9375 0.9375 0.125
259 1 0.0625 0 0.1875
260 1 0 0.0625 0.1875
264 1 0.125 0.0625 0.1875
291 1 0.0625 0.125 0.1875
513 1 0 0 0.25
514 1 0.0625 0.0625 0.25
517 1 0.125 0 0.25
545 1 0 0.125 0.25
549 1 0.125 0.125 0.25
263 1 0.1875 0 0.1875
268 1 0.25 0.0625 0.1875
295 1 0.1875 0.125 0.1875
518 1 0.1875 0.0625 0.25
521 1 0.25 0 0.25
553 1 0.25 0.125 0.25
267 1 0.3125 0 0.1875
272 1 0.375 0.0625 0.1875
299 1 0.3125 0.125 0.1875
522 1 0.3125 0.0625 0.25
525 1 0.375 0 0.25
557 1 0.375 0.125 0.25
271 1 0.4375 0 0.1875
276 1 0.5 0.0625 0.1875
303 1 0.4375 0.125 0.1875
526 1 0.4375 0.0625 0.25
529 1 0.5 0 0.25
561 1 0.5 0.125 0.25
275 1 0.5625 0 0.1875
307 1 0.5625 0.125 0.1875
530 1 0.5625 0.0625 0.25
279 1 0.6875 0 0.1875
280 1 0.625 0.0625 0.1875
284 1 0.75 0.0625 0.1875
311 1 0.6875 0.125 0.1875
533 1 0.625 0 0.25
534 1 0.6875 0.0625 0.25
537 1 0.75 0 0.25
565 1 0.625 0.125 0.25
569 1 0.75 0.125 0.25
283 1 0.8125 0 0.1875
288 1 0.875 0.0625 0.1875
315 1 0.8125 0.125 0.1875
538 1 0.8125 0.0625 0.25
541 1 0.875 0 0.25
573 1 0.875 0.125 0.25
287 1 0.9375 0 0.1875
319 1 0.9375 0.125 0.1875
542 1 0.9375 0.0625 0.25
292 1 0 0.1875 0.1875
296 1 0.125 0.1875 0.1875
323 1 0.0625 0.25 0.1875
546 1 0.0625 0.1875 0.25
577 1 0 0.25 0.25
581 1 0.125 0.25 0.25
300 1 0.25 0.1875 0.1875
327 1 0.1875 0.25 0.1875
550 1 0.1875 0.1875 0.25
585 1 0.25 0.25 0.25
304 1 0.375 0.1875 0.1875
331 1 0.3125 0.25 0.1875
554 1 0.3125 0.1875 0.25
589 1 0.375 0.25 0.25
308 1 0.5 0.1875 0.1875
335 1 0.4375 0.25 0.1875
558 1 0.4375 0.1875 0.25
593 1 0.5 0.25 0.25
339 1 0.5625 0.25 0.1875
562 1 0.5625 0.1875 0.25
312 1 0.625 0.1875 0.1875
316 1 0.75 0.1875 0.1875
343 1 0.6875 0.25 0.1875
566 1 0.6875 0.1875 0.25
597 1 0.625 0.25 0.25
601 1 0.75 0.25 0.25
320 1 0.875 0.1875 0.1875
347 1 0.8125 0.25 0.1875
570 1 0.8125 0.1875 0.25
605 1 0.875 0.25 0.25
351 1 0.9375 0.25 0.1875
574 1 0.9375 0.1875 0.25
324 1 0 0.3125 0.1875
328 1 0.125 0.3125 0.1875
355 1 0.0625 0.375 0.1875
578 1 0.0625 0.3125 0.25
609 1 0 0.375 0.25
613 1 0.125 0.375 0.25
332 1 0.25 0.3125 0.1875
359 1 0.1875 0.375 0.1875
582 1 0.1875 0.3125 0.25
617 1 0.25 0.375 0.25
336 1 0.375 0.3125 0.1875
363 1 0.3125 0.375 0.1875
586 1 0.3125 0.3125 0.25
621 1 0.375 0.375 0.25
340 1 0.5 0.3125 0.1875
367 1 0.4375 0.375 0.1875
590 1 0.4375 0.3125 0.25
625 1 0.5 0.375 0.25
371 1 0.5625 0.375 0.1875
594 1 0.5625 0.3125 0.25
344 1 0.625 0.3125 0.1875
348 1 0.75 0.3125 0.1875
375 1 0.6875 0.375 0.1875
598 1 0.6875 0.3125 0.25
629 1 0.625 0.375 0.25
633 1 0.75 0.375 0.25
352 1 0.875 0.3125 0.1875
379 1 0.8125 0.375 0.1875
602 1 0.8125 0.3125 0.25
637 1 0.875 0.375 0.25
383 1 0.9375 0.375 0.1875
606 1 0.9375 0.3125 0.25
356 1 0 0.4375 0.1875
360 1 0.125 0.4375 0.1875
387 1 0.0625 0.5 0.1875
610 1 0.0625 0.4375 0.25
641 1 0 0.5 0.25
645 1 0.125 0.5 0.25
364 1 0.25 0.4375 0.1875
391 1 0.1875 0.5 0.1875
614 1 0.1875 0.4375 0.25
649 1 0.25 0.5 0.25
368 1 0.375 0.4375 0.1875
395 1 0.3125 0.5 0.1875
618 1 0.3125 0.4375 0.25
653 1 0.375 0.5 0.25
372 1 0.5 0.4375 0.1875
399 1 0.4375 0.5 0.1875
622 1 0.4375 0.4375 0.25
657 1 0.5 0.5 0.25
403 1 0.5625 0.5 0.1875
626 1 0.5625 0.4375 0.25
376 1 0.625 0.4375 0.1875
380 1 0.75 0.4375 0.1875
407 1 0.6875 0.5 0.1875
630 1 0.6875 0.4375 0.25
661 1 0.625 0.5 0.25
665 1 0.75 0.5 0.25
384 1 0.875 0.4375 0.1875
411 1 0.8125 0.5 0.1875
634 1 0.8125 0.4375 0.25
669 1 0.875 0.5 0.25
415 1 0.9375 0.5 0.1875
638 1 0.9375 0.4375 0.25
388 1 0 0.5625 0.1875
392 1 0.125 0.5625 0.1875
642 1 0.0625 0.5625 0.25
396 1 0.25 0.5625 0.1875
646 1 0.1875 0.5625 0.25
400 1 0.375 0.5625 0.1875
650 1 0.3125 0.5625 0.25
404 1 0.5 0.5625 0.1875
654 1 0.4375 0.5625 0.25
658 1 0.5625 0.5625 0.25
408 1 0.625 0.5625 0.1875
412 1 0.75 0.5625 0.1875
662 1 0.6875 0.5625 0.25
416 1 0.875 0.5625 0.1875
666 1 0.8125 0.5625 0.25
670 1 0.9375 0.5625 0.25
419 1 0.0625 0.625 0.1875
420 1 0 0.6875 0.1875
424 1 0.125 0.6875 0.1875
451 1 0.0625 0.75 0.1875
673 1 0 0.625 0.25
674 1 0.0625 0.6875 0.25
677 1 0.125 0.625 0.25
705 1 0 0.75 0.25
709 1 0.125 0.75 0.25
423 1 0.1875 0.625 0.1875
428 1 0.25 0.6875 0.1875
455 1 0.1875 0.75 0.1875
678 1 0.1875 0.6875 0.25
681 1 0.25 0.625 0.25
713 1 0.25 0.75 0.25
427 1 0.3125 0.625 0.1875
432 1 0.375 0.6875 0.1875
459 1 0.3125 0.75 0.1875
682 1 0.3125 0.6875 0.25
685 1 0.375 0.625 0.25
717 1 0.375 0.75 0.25
431 1 0.4375 0.625 0.1875
436 1 0.5 0.6875 0.1875
463 1 0.4375 0.75 0.1875
686 1 0.4375 0.6875 0.25
689 1 0.5 0.625 0.25
721 1 0.5 0.75 0.25
435 1 0.5625 0.625 0.1875
467 1 0.5625 0.75 0.1875
690 1 0.5625 0.6875 0.25
439 1 0.6875 0.625 0.1875
440 1 0.625 0.6875 0.1875
444 1 0.75 0.6875 0.1875
471 1 0.6875 0.75 0.1875
693 1 0.625 0.625 0.25
694 1 0.6875 0.6875 0.25
697 1 0.75 0.625 0.25
725 1 0.625 0.75 0.25
729 1 0.75 0.75 0.25
443 1 0.8125 0.625 0.1875
448 1 0.875 0.6875 0.1875
475 1 0.8125 0.75 0.1875
698 1 0.8125 0.6875 0.25
701 1 0.875 0.625 0.25
733 1 0.875 0.75 0.25
447 1 0.9375 0.625 0.1875
479 1 0.9375 0.75 0.1875
702 1 0.9375 0.6875 0.25
452 1 0 0.8125 0.1875
456 1 0.125 0.8125 0.1875
483 1 0.0625 0.875 0.1875
706 1 0.0625 0.8125 0.25
737 1 0 0.875 0.25
741 1 0.125 0.875 0.25
460 1 0.25 0.8125 0.1875
487 1 0.1875 0.875 0.1875
710 1 0.1875 0.8125 0.25
745 1 0.25 0.875 0.25
464 1 0.375 0.8125 0.1875
491 1 0.3125 0.875 0.1875
714 1 0.3125 0.8125 0.25
749 1 0.375 0.875 0.25
468 1 0.5 0.8125 0.1875
495 1 0.4375 0.875 0.1875
718 1 0.4375 0.8125 0.25
753 1 0.5 0.875 0.25
499 1 0.5625 0.875 0.1875
722 1 0.5625 0.8125 0.25
472 1 0.625 0.8125 0.1875
476 1 0.75 0.8125 0.1875
503 1 0.6875 0.875 0.1875
726 1 0.6875 0.8125 0.25
757 1 0.625 0.875 0.25
761 1 0.75 0.875 0.25
480 1 0.875 0.8125 0.1875
507 1 0.8125 0.875 0.1875
730 1 0.8125 0.8125 0.25
765 1 0.875 0.875 0.25
511 1 0.9375 0.875 0.1875
734 1 0.9375 0.8125 0.25
484 1 0 0.9375 0.1875
488 1 0.125 0.9375 0.1875
738 1 0.0625 0.9375 0.25
492 1 0.25 0.9375 0.1875
742 1 0.1875 0.9375 0.25
496 1 0.375 0.9375 0.1875
746 1 0.3125 0.9375 0.25
500 1 0.5 0.9375 0.1875
750 1 0.4375 0.9375 0.25
754 1 0.5625 0.9375 0.25
504 1 0.625 0.9375 0.1875
508 1 0.75 0.9375 0.1875
758 1 0.6875 0.9375 0.25
512 1 0.875 0.9375 0.1875
762 1 0.8125 0.9375 0.25
766 1 0.9375 0.9375 0.25
515 1 0.0625 0 0.3125
516 1 0 0.0625 0.3125
520 1 0.125 0.0625 0.3125
547 1 0.0625 0.125 0.3125
769 1 0 0 0.375
770 1 0.0625 0.0625 0.375
773 1 0.125 0 0.375
801 1 0 0.125 0.375
805 1 0.125 0.125 0.375
519 1 0.1875 0 0.3125
524 1 0.25 0.0625 0.3125
551 1 0.1875 0.125 0.3125
774 1 0.1875 0.0625 0.375
777 1 0.25 0 0.375
809 1 0.25 0.125 0.375
523 1 0.3125 0 0.3125
528 1 0.375 0.0625 0.3125
555 1 0.3125 0.125 0.3125
778 1 0.3125 0.0625 0.375
781 1 0.375 0 0.375
813 1 0.375 0.125 0.375
527 1 0.4375 0 0.3125
532 1 0.5 0.0625 0.3125
559 1 0.4375 0.125 0.3125
782 1 0.4375 0.0625 0.375
785 1 0.5 0 0.375
817 1 0.5 0.125 0.375
531 1 0.5625 0 0.3125
563 1 0.5625 0.125 0.3125
786 1 0.5625 0.0625 0.375
535 1 0.6875 0 0.3125
536 1 0.625 0.0625 0.3125
540 1 0.75 0.0625 0.3125
567 1 0.6875 0.125 0.3125
789 1 0.625 0 0.375
790 1 0.6875 0.0625 0.375
793 1 0.75 0 0.375
821 1 0.625 0.125 0.375
825 1 0.75 0.125 0.375
539 1 0.8125 0 0.3125
544 1 0.875 0.0625 0.3125
571 1 0.8125 0.125 0.3125
794 1 0.8125 0.0625 0.375
797 1 0.875 0 0.375
829 1 0.875 0.125 0.375
543 1 0.9375 0 0.3125
575 1 0.9375 0.125 0.3125
798 1 0.9375 0.0625 0.375
548 1 0 0.1875 0.3125
552 1 0.125 0.1875 0.3125
579 1 0.0625 0.25 0.3125
802 1 0.0625 0.1875 0.375
833 1 0 0.25 0.375
837 1 0.125 0.25 0.375
556 1 0.25 0.1875 0.3125
583 1 0.1875 0.25 0.3125
806 1 0.1875 0.1875 0.375
841 1 0.25 0.25 0.375
560 1 0.375 0.1875 0.3125
587 1 0.3125 0.25 0.3125
810 1 0.3125 0.1875 0.375
845 1 0.375 0.25 0.375
564 1 0.5 0.1875 0.3125
591 1 0.4375 0.25 0.3125
814 1 0.4375 0.1875 0.375
849 1 0.5 0.25 0.375
595 1 0.5625 0.25 0.3125
818 1 0.5625 0.1875 0.375
568 1 0.625 0.1875 0.3125
572 1 0.75 0.1875 0.3125
599 1 0.6875 0.25 0.3125
822 1 0.6875 0.1875 0.375
853 1 0.625 0.25 0.375
857 1 0.75 0.25 0.375
576 1 0.875 0.1875 0.3125
603 1 0.8125 0.25 0.3125
826 1 0.8125 0.1875 0.375
861 1 0.875 0.25 0.375
607 1 0.9375 0.25 0.3125
830 1 0.9375 0.1875 0.375
580 1 0 0.3125 0.3125
584 1 0.125 0.3125 0.3125
611 1 0.0625 0.375 0.3125
834 1 0.0625 0.3125 0.375
865 1 0 0.375 0.375
869 1 0.125 0.375 0.375
588 1 0.25 0.3125 0.3125
615 1 0.1875 0.375 0.3125
838 1 0.1875 0.3125 0.375
873 1 0.25 0.375 0.375
592 1 0.375 0.3125 0.3125
619 1 0.3125 0.375 0.3125
842 1 0.3125 0.3125 0.375
877 1 0.375 0.375 0.375
596 1 0.5 0.3125 0.3125
623 1 0.4375 0.375 0.3125
846 1 0.4375 0.3125 0.375
881 1 0.5 0.375 0.375
627 1 0.5625 0.375 0.3125
850 1 0.5625 0.3125 0.375
600 1 0.625 0.3125 0.3125
604 1 0.75 0.3125 0.3125
631 1 0.6875 0.375 0.3125
854 1 0.6875 0.3125 0.375
885 1 0.625 0.375 0.375
889 1 0.75 0.375 0.375
608 1 0.875 0.3125 0.3125
635 1 0.8125 0.375 0.3125
858 1 0.8125 0.3125 0.375
893 1 0.875 0.375 0.375
639 1 0.9375 0.375 0.3125
862 1 0.9375 0.3125 0.375
612 1 0 0.4375 0.3125
616 1 0.125 0.4375 0.3125
643 1 0.0625 0.5 0.3125
866 1 0.0625 0.4375 0.375
897 1 0 0.5 0.375
901 1 0.125 0.5 0.375
620 1 0.25 0.4375 0.3125
647 1 0.1875 0.5 0.3125
870 1 0.1875 0.4375 0.375
905 1 0.25 0.5 0.375
624 1 0.375 0.4375 0.3125
651 1 0.3125 0.5 0.3125
874 1 0.3125 0.4375 0.375
909 1 0.375 0.5 0.375
628 1 0.5 0.4375 0.3125
655 1 0.4375 0.5 0.3125
878 1 0.4375 0.4375 0.375
913 1 0.5 0.5 0.375
659 1 0.5625 0.5 0.3125
882 1 0.5625 0.4375 0.375
632 1 0.625 0.4375 0.3125
636 1 0.75 0.4375 0.3125
663 1 0.6875 0.5 0.3125
886 1 0.6875 0.4375 0.375
917 1 0.625 0.5 0.375
921 1 0.75 0.5 0.375
640 1 0.875 0.4375 0.3125
667 1 0.8125 0.5 0.3125
890 1 0.8125 0.4375 0.375
925 1 0.875 0.5 0.375
671 1 0.9375 0.5 0.3125
894 1 0.9375 0.4375 0.375
644 1 0 0.5625 0.3125
648 1 0.125 0.5625 0.3125
898 1 0.0625 0.5625 0.375
652 1 0.25 0.5625 0.3125
902 1 0.1875 0.5625 0.375
656 1 0.375 0.5625 0.3125
906 1 0.3125 0.5625 0.375
660 1 0.5 0.5625 0.3125
910 1 0.4375 0.5625 0.375
914 1 0.5625 0.5625 0.375
664 1 0.625 0.5625 0.3125
668 1 0.75 0.5625 0.3125
918 1 0.6875 0.5625 0.375
672 1 0.875 0.5625 0.3125
922 1 0.8125 0.5625 0.375
926 1 0.9375 0.5625 0.375
675 1 0.0625 0.625 0.3125
676 1 0 0.6875 0.3125
680 1 0.125 0.6875 0.3125
707 1 0.0625 0.75 0.3125
929 1 0 0.625 0.375
930 1 0.0625 0.6875 0.375
933 1 0.125 0.625 0.375
961 1 0 0.75 0.375
965 1 0.125 0.75 0.375
679 1 0.1875 0.625 0.3125
684 1 0.25 0.6875 0.3125
711 1 0.1875 0.75 0.3125
934 1 0.1875 0.6875 0.375
937 1 0.25 0.625 0.375
969 1 0.25 0.75 0.375
683 1 0.3125 0.625 0.3125
688 1 0.375 0.6875 0.3125
715 1 0.3125 0.75 0.3125
938 1 0.3125 0.6875 0.375
941 1 0.375 0.625 0.375
973 1 0.375 0.75 0.375
687 1 0.4375 0.625 0.3125
692 1 0.5 0.6875 0.3125
719 1 0.4375 0.75 0.3125
942 1 0.4375 0.6875 0.375
945 1 0.5 0.625 0.375
977 1 0.5 0.75 0.375
691 1 0.5625 0.625 0.3125
723 1 0.5625 0.75 0.3125
946 1 0.5625 0.6875 0.375
695 1 0.6875 0.625 0.3125
696 1 0.625 0.6875 0.3125
700 1 0.75 0.6875 0.3125
727 1 0.6875 0.75 0.3125
949 1 0.625 0.625 0.375
950 1 0.6875 0.6875 0.375
953 1 0.75 0.625 0.375
981 1 0.625 0.75 0.375
985 1 0.75 0.75 0.375
699 1 0.8125 0.625 0.3125
704 1 0.875 0.6875 0.3125
731 1 0.8125 0.75 0.3125
954 1 0.8125 0.6875 0.375
957 1 0.875 0.625 0.375
989 1 0.875 0.75 0.375
703 1 0.9375 0.625 0.3125
735 1 0.9375 0.75 0.3125
958 1 0.9375 0.6875 0.375
708 1 0 0.8125 0.3125
712 1 0.125 0.8125 0.3125
739 1 0.0625 0.875 0.3125
962 1 0.0625 0.8125 0.375
993 1 0 0.875 0.375
997 1 0.125 0.875 0.375
716 1 0.25 0.8125 0.3125
743 1 0.1875 0.875 0.3125
966 1 0.1875 0.8125 0.375
1001 1 0.25 0.875 0.375
720 1 0.375 0.8125 0.3125
747 1 0.3125 0.875 0.3125
970 1 0.3125 0.8125 0.375
1005 1 0.375 0.875 0.375
724 1 0.5 0.8125 0.3125
751 1 0.4375 0.875 0.3125
974 1 0.4375 0.8125 0.375
1009 1 0.5 0.875 0.375
755 1 0.5625 0.875 0.3125
978 1 0.5625 0.8125 0.375
728 1 0.625 0.8125 0.3125
732 1 0.75 0.8125 0.3125
759 1 0.6875 0.875 0.3125
982 1 0.6875 0.8125 0.375
1013 1 0.625 0.875 0.375
1017 1 0.75 0.875 0.375
736 1 0.875 0.8125 0.3125
763 1 0.8125 0.875 0.3125
986 1 0.8125 0.8125 0.375
1021 1 0.875 0.875 0.375
767 1 0.9375 0.875 0.3125
990 1 0.9375 0.8125 0.375
740 1 0 0.9375 0.3125
744 1 0.125 0.9375 0.3125
994 1 0.0625 0.9375 0.375
748 1 0.25 0.9375 0.3125
998 1 0.1875 0.9375 0.375
752 1 0.375 0.9375 0.3125
1002 1 0.3125 0.9375 0.375
756 1 0.5 0.9375 0.3125
1006 1 0.4375 0.9375 0.375
1010 1 0.5625 0.9375 0.375
760 1 0.625 0.9375 0.3125
764 1 0.75 0.9375 0.3125
1014 1 0.6875 0.9375 0.375
768 1 0.875 0.9375 0.3125
1018 1 0.8125 0.9375 0.375
1022 1 0.9375 0.9375 0.375
771 1 0.0625 0 0.4375
772 1 0 0.0625 0.4375
776 1 0.125 0.0625 0.4375
803 1 0.0625 0.125 0.4375
1025 1 0 0 0.5
1026 1 0.0625 0.0625 0.5
1029 1 0.125 0 0.5
1057 1 0 0.125 0.5
1061 1 0.125 0.125 0.5
775 1 0.1875 0 0.4375
780 1 0.25 0.0625 0.4375
807 1 0.1875 0.125 0.4375
1030 1 0.1875 0.0625 0.5
1033 1 0.25 0 0.5
1065 1 0.25 0.125 0.5
779 1 0.3125 0 0.4375
784 1 0.375 0.0625 0.4375
811 1 0.3125 0.125 0.4375
1034 1 0.3125 0.0625 0.5
1037 1 0.375 0 0.5
1069 1 0.375 0.125 0.5
783 1 0.4375 0 0.4375
788 1 0.5 0.0625 0.4375
815 1 0.4375 0.125 0.4375
1038 1 0.4375 0.0625 0.5
1041 1 0.5 0 0.5
1073 1 0.5 0.125 0.5
787 1 0.5625 0 0.4375
819 1 0.5625 0.125 0.4375
1042 1 0.5625 0.0625 0.5
791 1 0.6875 0 0.4375
792 1 0.625 0.0625 0.4375
796 1 0.75 0.0625 0.4375
823 1 0.6875 0.125 0.4375
1045 1 0.625 0 0.5
1046 1 0.6875 0.0625 0.5
1049 1 0.75 0 0.5
1077 1 0.625 0.125 0.5
1081 1 0.75 0.125 0.5
795 1 0.8125 0 0.4375
800 1 0.875 0.0625 0.4375
827 1 0.8125 0.125 0.4375
1050 1 0.8125 0.0625 0.5
1053 1 0.875 0 0.5
1085 1 0.875 0.125 0.5
799 1 0.9375 0 0.4375
831 1 0.9375 0.125 0.4375
1054 1 0.9375 0.0625 0.5
804 1 0 0.1875 0.4375
808 1 0.125 0.1875 0.4375
835 1 0.0625 0.25 0.4375
1058 1 0.0625 0.1875 0.5
1089 1 0 0.25 0.5
1093 1 0.125 0.25 0.5
812 1 0.25 0.1875 0.4375
839 1 0.1875 0.25 0.4375
1062 1 0.1875 0.1875 0.5
1097 1 0.25 0.25 0.5
816 1 0.375 0.1875 0.4375
843 1 0.3125 0.25 0.4375
1066 1 0.3125 0.1875 0.5
1101 1 0.375 0.25 0.5
820 1 0.5 0.1875 0.4375
847 1 0.4375 0.25 0.4375
1070 1 0.4375 0.1875 0.5
1105 1 0.5 0.25 0.5
851 1 0.5625 0.25 0.4375
1074 1 0.5625 0.1875 0.5
824 1 0.625 0.1875 0.4375
828 1 0.75 0.1875 0.4375
855 1 0.6875 0.25 0.4375
1078 1 0.6875 0.1875 0.5
1109 1 0.625 0.25 0.5
1113 1 0.75 0.25 0.5
832 1 0.875 0.1875 0.4375
859 1 0.8125 0.25 0.4375
1082 1 0.8125 0.1875 0.5
1117 1 0.875 0.25 0.5
863 1 0.9375 0.25 0.4375
1086 1 0.9375 0.1875 0.5
836 1 0 0.3125 0.4375
840 1 0.125 0.3125 0.4375
867 1 0.0625 0.375 0.4375
1090 1 0.0625 0.3125 0.5
1121 1 0 0.375 0.5
1125 1 0.125 0.375 0.5
844 1 0.25 0.3125 0.4375
871 1 0.1875 0.375 0.4375
1094 1 0.1875 0.3125 0.5
1129 1 0.25 0.375 0.5
848 1 0.375 0.3125 0.4375
875 1 0.3125 0.375 0.4375
1098 1 0.3125 0.3125 0.5
1133 1 0.375 0.375 0.5
852 1 0.5 0.3125 0.4375
879 1 0.4375 0.375 0.4375
1102 1 0.4375 0.3125 0.5
1137 1 0.5 0.375 0.5
883 1 0.5625 0.375 0.4375
1106 1 0.5625 0.3125 0.5
856 1 0.625 0.3125 0.4375
860 1 0.75 0.3125 0.4375
887 1 0.6875 0.375 0.4375
1110 1 0.6875 0.3125 0.5
1141 1 0.625 0.375 0.5
1145 1 0.75 0.375 0.5
864 1 0.875 0.3125 0.4375
891 1 0.8125 0.375 0.4375
1114 1 0.8125 0.3125 0.5
1149 1 0.875 0.375 0.5
895 1 0.9375 0.375 0.4375
1118 1 0.9375 0.3125 0.5
868 1 0 0.4375 0.4375
872 1 0.125 0.4375 0.4375
899 1 0.0625 0.5 0.4375
1122 1 0.0625 0.4375 0.5
1153 1 0 0.5 0.5
1157 1 0.125 0.5 0.5
876 1 0.25 0.4375 0.4375
903 1 0.1875 0.5 0.4375
1126 1 0.1875 0.4375 0.5
1161 1 0.25 0.5 0.5
880 1 0.375 0.4375 0.4375
907 1 0.3125 0.5 0.4375
1130 1 0.3125 0.4375 0.5
1165 1 0.375 0.5 0.5
884 1 0.5 0.4375 0.4375
911 1 0.4375 0.5 0.4375
1134 1 0.4375 0.4375 0.5
1169 1 0.5 0.5 0.5
915 1 0.5625 0.5 0.4375
1138 1 0.5625 0.4375 0.5
888 1 0.625 0.4375 0.4375
892 1 0.75 0.4375 0.4375
919 1 0.6875 0.5 0.4375
1142 1 0.6875 0.4375 0.5
1173 1 0.625 0.5 0.5
1177 1 0.75 0.5 0.5
896 1 0.875 0.4375 0.4375
923 1 0.8125 0.5 0.4375
1146 1 0.8125 0.4375 0.5
1181 1 0.875 0.5 0.5
927 1 0.9375 0.5 0.4375
1150 1 0.9375 0.4375 0.5
900 1 0 0.5625 0.4375
904 1 0.125 0.5625 0.4375
1154 1 0.0625 0.5625 0.5
908 1 0.25 0.5625 0.4375
1158 1 0.1875 0.5625 0.5
912 1 0.375 0.5625 0.4375
1162 1 0.3125 0.5625 0.5
916 1 0.5 0.5625 0.4375
1166 1 0.4375 0.5625 0.5
1170 1 0.5625 0.5625 0.5
920 1 0.625 0.5625 0.4375
924 1 0.75 0.5625 0.4375
1174 1 0.6875 0.5625 0.5
928 1 0.875 0.5625 0.4375
1178 1 0.8125 0.5625 0.5
1182 1 0.9375 0.5625 0.5
931 1 0.0625 0.625 0.4375
932 1 0 0.6875 0.4375
936 1 0.125 0.6875 0.4375
963 1 0.0625 0.75 0.4375
1185 1 0 0.625 0.5
1186 1 0.0625 0.6875 0.5
1189 1 0.125 0.625 0.5
1217 1 0 0.75 0.5
1221 1 0.125 0.75 0.5
935 1 0.1875 0.625 0.4375
940 1 0.25 0.6875 0.4375
967 1 0.1875 0.75 0.4375
1190 1 0.1875 0.6875 0.5
1193 1 0.25 0.625 0.5
1225 1 0.25 0.75 0.5
939 1 0.3125 0.625 0.4375
944 1 0.375 0.6875 0.4375
971 1 0.3125 0.75 0.4375
1194 1 0.3125 0.6875 0.5
1197 1 0.375 0.625 0.5
1229 1 0.375 0.75 0.5
943 1 0.4375 0.625 0.4375
948 1 0.5 0.6875 0.4375
975 1 0.4375 0.75 0.4375
1198 1 0.4375 0.6875 0.5
1201 1 0.5 0.625 0.5
1233 1 0.5 0.75 0.5
947 1 0.5625 0.625 0.4375
979 1 0.5625 0.75 0.4375
1202 1 0.5625 0.6875 0.5
951 1 0.6875 0.625 0.4375
952 1 0.625 0.6875 0.4375
956 1 0.75 0.6875 0.4375
983 1 0.6875 0.75 0.4375
1205 1 0.625 0.625 0.5
1206 1 0.6875 0.6875 0.5
1209 1 0.75 0.625 0.5
1237 1 0.625 0.75 0.5
1241 1 0.75 0.75 0.5
955 1 0.8125 0.625 0.4375
960 1 0.875 0.6875 0.4375
987 1 0.8125 0.75 0.4375
1210 1 0.8125 0.6875 0.5
1213 1 0.875 0.625 0.5
1245 1 0.875 0.75 0.5
959 1 0.9375 0.625 0.4375
991 1 0.9375 0.75 0.4375
1214 1 0.9375 0.6875 0.5
964 1 0 0.8125 0.4375
968 1 0.125 0.8125 0.4375
995 1 0.0625 0.875 0.4375
1218 1 0.0625 0.8125 0.5
1249 1 0 0.875 0.5
1253 1 0.125 0.875 0.5
972 1 0.25 0.8125 0.4375
999 1 0.1875 0.875 0.4375
1222 1 0.1875 0.8125 0.5
1257 1 0.25 0.875 0.5
976 1 0.375 0.8125 0.4375
1003 1 0.3125 0.875 0.4375
1226 1 0.3125 0.8125 0.5
1261 1 0.375 0.875 0.5
980 1 0.5 0.8125 0.4375
1007 1 0.4375 0.875 0.4375
1230 1 0.4375 0.8125 0.5
1265 1 0.5 0.875 0.5
1011 1 0.5625 0.875 0.4375
1234 1 0.5625 0.8125 0.5
984 1 0.625 0.8125 0.4375
988 1 0.75 0.8125 0.4375
1015 1 0.6875 0.875 0.4375
1238 1 0.6875 0.8125 0.5
1269 1 0.625 0.875 0.5
1273 1 0.75 0.875 0.5
992 1 0.875 0.8125 0.4375
1019 1 0.8125 0.875 0.4375
1242 1 0.8125 0.8125 0.5
1277 1 0.875 0.875 0.5
1023 1 0.9375 0.875 0.4375
1246 1 0.9375 0.8125 0.5
996 1 0 0.9375 0.4375
1000 1 0.125 0.9375 0.4375
1250 1 0.0625 0.9375 0.5
1004 1 0.25 0.9375 0.4375
1254 1 0.1875 0.9375 0.5
1008 1 0.375 0.9375 0.4375
1258 1 0.3125 0.9375 0.5
1012 1 0.5 0.9375 0.4375
1262 1 0.4375 0.9375 0.5
1266 1 0.5625 0.9375 0.5
1016 1 0.625 0.9375 0.4375
1020 1 0.75 0.9375 0.4375
1270 1 0.6875 0.9375 0.5
1024 1 0.875 0.9375 0.4375
1274 1 0.8125 0.9375 0.5
1278 1 0.9375 0.9375 0.5
1027 1 0.0625 0 0.5625
1028 1 0 0.0625 0.5625
1032 1 0.125 0.0625 0.5625
1059 1 0.0625 0.125 0.5625
1031 1 0.1875 0 0.5625
1036 1 0.25 0.0625 0.5625
1063 1 0.1875 0.125 0.5625
1035 1 0.3125 0 0.5625
1040 1 0.375 0.0625 0.5625
1067 1 0.3125 0.125 0.5625
1039 1 0.4375 0 0.5625
1044 1 0.5 0.0625 0.5625
1071 1 0.4375 0.125 0.5625
1043 1 0.5625 0 0.5625
1075 1 0.5625 0.125 0.5625
1047 1 0.6875 0 0.5625
1048 1 0.625 0.0625 0.5625
1052 1 0.75 0.0625 0.5625
1079 1 0.6875 0.125 0.5625
1051 1 0.8125 0 0.5625
1056 1 0.875 0.0625 0.5625
1083 1 0.8125 0.125 0.5625
1055 1 0.9375 0 0.5625
1087 1 0.9375 0.125 0.5625
1060 1 0 0.1875 0.5625
1064 1 0.125 0.1875 0.5625
1091 1 0.0625 0.25 0.5625
1068 1 0.25 0.1875 0.5625
1095 1 0.1875 0.25 0.5625
1072 1 0.375 0.1875 0.5625
1099 1 0.3125 0.25 0.5625
1076 1 0.5 0.1875 0.5625
1103 1 0.4375 0.25 0.5625
1107 1 0.5625 0.25 0.5625
1080 1 0.625 0.1875 0.5625
1084 1 0.75 0.1875 0.5625
1111 1 0.6875 0.25 0.5625
1088 1 0.875 0.1875 0.5625
1115 1 0.8125 0.25 0.5625
1119 1 0.9375 0.25 0.5625
1092 1 0 0.3125 0.5625
1096 1 0.125 0.3125 0.5625
1123 1 0.0625 0.375 0.5625
1100 1 0.25 0.3125 0.5625
1127 1 0.1875 0.375 0.5625
1104 1 0.375 0.3125 0.5625
1131 1 0.3125 0.375 0.5625
1108 1 0.5 0.3125 0.5625
1135 1 0.4375 0.375 0.5625
1139 1 0.5625 0.375 0.5625
1112 1 0.625 0.3125 0.5625
1116 1 0.75 0.3125 0.5625
1143 1 0.6875 0.375 0.5625
1120 1 0.875 0.3125 0.5625
1147 1 0.8125 0.375 0.5625
1151 1 0.9375 0.375 0.5625
1124 1 0 0.4375 0.5625
1128 1 0.125 0.4375 0.5625
1155 1 0.0625 0.5 0.5625
1132 1 0.25 0.4375 0.5625
1159 1 0.1875 0.5 0.5625
1136 1 0.375 0.4375 0.5625
1163 1 0.3125 0.5 0.5625
1140 1 0.5 0.4375 0.5625
1167 1 0.4375 0.5 0.5625
1171 1 0.5625 0.5 0.5625
1144 1 0.625 0.4375 0.5625
1148 1 0.75 0.4375 0.5625
1175 1 0.6875 0.5 0.5625
1152 1 0.875 0.4375 0.5625
1179 1 0.8125 0.5 0.5625
1183 1 0.9375 0.5 0.5625
1156 1 0 0.5625 0.5625
1160 1 0.125 0.5625 0.5625
1164 1 0.25 0.5625 0.5625
1168 1 0.375 0.5625 0.5625
1172 1 0.5 0.5625 0.5625
1176 1 0.625 0.5625 0.5625
1180 1 0.75 0.5625 0.5625
1184 1 0.875 0.5625 0.5625
1187 1 0.0625 0.625 0.5625
1188 1 0 0.6875 0.5625
1192 1 0.125 0.6875 0.5625
1219 1 0.0625 0.75 0.5625
1191 1 0.1875 0.625 0.5625
1196 1 0.25 0.6875 0.5625
1223 1 0.1875 0.75 0.5625
1195 1 0.3125 0.625 0.5625
1200 1 0.375 0.6875 0.5625
1227 1 0.3125 0.75 0.5625
1199 1 0.4375 0.625 0.5625
1204 1 0.5 0.6875 0.5625
1231 1 0.4375 0.75 0.5625
1203 1 0.5625 0.625 0.5625