ITEM: TIMESTEP
0
ITEM: NUMBER OF ATOMS
330
ITEM: BOX BOUNDS pp pp ff
0.0000000000000000e+00 5.0000000000000000e+01
0.0000000000000000e+00 5.0000000000000000e+01
0.0000000000000000e+00 8.0000000000000000e+01
ITEM: ATOMS id mol type x y z
203 68 4 21.1325 12.4358 5.84504
205 69 3 30.2101 7.53619 5.12201
206 69 4 30.8847 6.87822 5.28998
207 69 4 30.6951 8.30384 4.8189
202 68 3 20.8169 13.3033 6.09816
204 68 4 21.0107 13.8581 5.34239
271 91 3 21.7672 21.2986 5.95733
272 91 4 22.4952 21.0624 5.38238
25 9 3 9.80149 26.3427 6.14801
26 9 4 10.179 25.4893 5.93459
27 9 4 10.1599 26.9347 5.48659
223 75 3 23.4737 28.3067 5.52229
224 75 4 24.2987 28.2956 5.03694
221 74 4 26.512 26.4767 6.1108
276 92 4 43.333 27.297 6.11113
76 26 3 7.98315 33.0309 6.07469
77 26 4 7.58125 32.5825 5.33063
78 26 4 8.87237 33.2305 5.78158
88 30 3 15.7932 36.3152 5.46064
89 30 4 16.7498 36.328 5.43114
90 30 4 15.5417 37.2389 5.46155
118 40 3 15.3675 33.9123 5.75034
119 40 4 16.2447 34.0676 6.1006
250 84 3 21.3486 41.0255 5.7343
251 84 4 20.7631 40.3336 6.04195
252 84 4 21.4031 40.8894 4.78829
4 2 3 42.6439 42.0647 5.65851
5 2 4 43.5133 41.6688 5.71958
6 2 4 42.7734 42.9703 5.94038
71 24 4 6.19609 5.30808 11.4877
70 24 3 7.03277 5.7062 11.2475
72 24 4 7.35465 6.09513 12.0609
115 39 3 5.10566 10.102 9.86109
116 39 4 5.78088 10.6357 10.28
117 39 4 4.4286 10.7293 9.60706
124 42 3 8.01129 9.92706 9.5715
125 42 4 8.83205 10.2747 9.92044
126 42 4 8.16768 9.8441 8.6307
127 43 3 11.1301 9.12409 8.81028
128 43 4 10.9165 9.98955 8.4616
129 43 4 12.0748 9.15405 8.96199
235 79 3 9.71469 7.30348 8.69771
236 79 4 10.3232 6.56488 8.71731
237 79 4 9.0637 7.0594 8.03962
181 61 3 16.2149 6.30101 10.3173
182 61 4 16.4574 7.07057 9.8023
183 61 4 15.9997 6.65035 11.1822
283 95 3 16.6141 9.36213 9.6178
284 95 4 17.549 9.21741 9.47222
285 95 4 16.4943 10.3025 9.48465
34 12 3 23.2342 8.56046 7.13556
35 12 4 24.189 8.58485 7.19894
36 12 4 22.9759 9.47944 7.06343
37 13 3 27.3385 8.62653 7.45332
38 13 4 27.525 9.56527 7.43946
39 13 4 26.6095 8.51868 6.84218
165 55 4 27.7143 12.4968 9.58302
259 87 3 31.5581 12.0191 7.4597
260 87 4 31.8151 11.2769 6.91254
49 17 3 41.0329 11.9474 11.3239
50 17 4 40.92 11.5436 10.4635
190 64 3 8.56026 14.6855 10.4399
191 64 4 9.02691 14.391 11.2221
192 64 4 8.82413 15.5996 10.3341
58 20 3 13.103 17.2067 11.195
59 20 4 13.4877 18.0779 11.2909
60 20 4 13.7438 16.6173 11.5931
40 14 3 22.2969 13.7783 8.58908
41 14 4 22.7372 14.4644 9.09071
42 14 4 21.846 14.2475 7.88699
103 35 3 23.8721 17.1946 9.05325
104 35 4 24.4314 17.2255 9.82943
105 35 4 23.0109 16.9454 9.38898
241 81 3 21.3945 17.1647 12.0101
242 81 4 20.7038 17.8252 11.9567
243 81 4 22.1405 17.5621 11.5606
163 55 3 27.3417 13.3207 9.26874
164 55 4 27.9742 13.6386 8.62448
232 78 3 28.2414 13.0914 11.4902
233 78 4 29.1982 13.1192 11.4924
234 78 4 27.9754 14.0106 11.5177
82 28 3 31.6109 18.6362 7.10028
83 28 4 32.4156 18.2238 6.7864
84 28 4 31.7066 18.6528 8.05266
157 53 3 34.98 17.5838 8.92392
158 53 4 34.6387 17.6868 8.03558
159 53 4 34.3107 17.0728 9.37932
261 87 4 32.0946 12.7462 7.14347
51 17 4 40.2751 12.5246 11.4183
262 88 3 43.6746 17.0713 9.63547
264 88 4 43.5376 18.0115 9.75257
263 88 4 44.6199 16.954 9.72927
273 91 4 22.0692 22.0831 6.41527
20 7 4 28.9649 24.9902 9.92063
21 7 4 29.714 24.7976 11.2214
46 16 3 28.1399 21.1223 9.0558
47 16 4 28.1075 21.1192 10.0124
48 16 4 28.7977 20.4621 8.8368
280 94 3 9.41323 29.6742 11.8704
281 94 4 10.2897 29.5344 11.5118
282 94 4 9.21004 30.5849 11.6567
291 97 4 12.4636 25.528 9.95466
289 97 3 13.2222 25.2296 9.45275
290 97 4 13.779 26.0046 9.37766
151 51 3 21.3753 29.973 7.58754
152 51 4 21.7018 29.9246 6.68904
153 51 4 21.6353 30.8434 7.88972
225 75 4 23.6011 28.9757 6.19501
268 90 3 19.7843 29.4321 10.7758
269 90 4 19.6435 29.1935 9.85959
270 90 4 20.6292 29.8821 10.7785
19 7 3 28.8659 25.0685 10.8695
142 48 3 25.7203 27.4736 8.76689
143 48 4 26.5973 27.8478 8.68303
144 48 4 25.139 28.1446 8.40869
220 74 3 25.6998 26.1298 6.47979
222 74 4 25.0233 26.7388 6.1832
61 21 3 36.6613 27.1092 9.27222
62 21 4 37.3072 26.4905 8.9312
63 21 4 35.9245 26.5609 9.54225
139 47 3 39.8037 30.5151 11.2154
141 47 4 40.2373 30.6833 12.0522
274 92 3 42.9242 27.9392 6.69163
275 92 4 42.9636 27.5364 7.55905
184 62 3 11.1319 33.3833 11.9331
185 62 4 12.0308 33.2947 12.2497
186 62 4 10.9416 34.3181 12.0123
298 100 3 11.3658 32.46 8.56483
299 100 4 11.352 31.9281 7.76909
300 100 4 12.293 32.5222 8.7947
94 32 3 18.5609 32.5883 7.44799
96 32 4 18.0443 33.3583 7.20982
120 40 4 14.7799 34.3128 6.39129
95 32 4 19.4541 32.9195 7.54194
211 71 3 21.2024 37.4985 8.65925
212 71 4 21.9343 37.158 9.17371
140 47 4 40.0269 31.2723 10.6741
277 93 3 39.7189 33.6638 8.84791
278 93 4 39.9409 34.2234 8.1037
279 93 4 40.4516 33.7714 9.45467
198 66 4 5.61082 42.7559 8.30473
187 63 3 8.40018 40.2494 7.95277
188 63 4 8.58076 39.6531 8.67951
189 63 4 9.20637 40.248 7.43652
196 66 3 6.52558 42.9911 8.46077
197 66 4 6.54029 43.3072 9.36415
133 45 3 18.0635 39.9685 10.1907
134 45 4 17.5261 40.755 10.2848
295 99 3 15.6475 43.1958 8.73836
297 99 4 15.5305 43.1464 7.7895
135 45 4 18.9074 40.292 9.87516
180 60 4 24.4801 39.0962 9.49851
213 71 4 20.8915 38.2546 9.15727
154 52 3 26.4292 40.9419 12.0641
155 52 4 26.9442 40.1536 12.2363
156 52 4 25.5634 40.6134 11.8213
178 60 3 25.4094 38.8727 9.55132
179 60 4 25.5128 38.484 10.4199
160 54 3 32.539 40.8732 7.571
161 54 4 32.778 40.7927 8.49439
162 54 4 33.1974 40.3551 7.10772
172 58 3 34.0453 37.9553 7.81661
173 58 4 33.9701 37.6817 8.73079
174 58 4 33.2831 37.5664 7.38728
7 3 3 41.6197 40.2562 10.3132
8 3 4 42.3655 40.3476 9.72024
9 3 4 41.7893 40.8901 11.0102
286 96 3 44.6542 39.7353 11.8916
287 96 4 44.6038 38.8013 11.6882
296 99 4 15.0659 43.9043 9.01428
85 29 3 35.4969 43.8569 9.71942
86 29 4 36.308 44.0231 10.1997
87 29 4 34.9352 44.6019 9.93385
136 46 3 42.3286 6.19081 16.3702
137 46 4 41.5618 5.84795 15.9111
138 46 4 42.1277 6.06543 17.2977
217 73 3 7.30923 6.58898 17.7616
218 73 4 8.22637 6.4111 17.9701
219 73 4 7.29718 7.51083 17.5038
227 76 4 12.1797 7.6848 16.3323
226 76 3 12.7314 8.27797 15.8224
228 76 4 13.0585 8.90988 16.4628
293 98 4 16.5091 12.1939 14.5313
28 10 3 27.4804 11.6945 14.7887
29 10 4 28.2496 11.5574 15.3417
43 15 3 28.2141 7.74734 15.8708
44 15 4 27.5296 8.17529 15.3564
45 15 4 28.2352 8.23592 16.6938
166 56 3 34.2789 7.07461 14.1589
167 56 4 35.1742 7.41044 14.2028
168 56 4 33.7605 7.81622 13.8463
292 98 3 16.7554 13.1179 14.4892
294 98 4 16.3154 13.447 13.7052
64 22 3 19.2083 16.7339 14.537
65 22 4 20.0705 16.3231 14.4741
66 22 4 19.3837 17.6042 14.8951
22 8 3 29.1578 17.7481 15.6835
23 8 4 29.0453 18.673 15.4639
24 8 4 28.6335 17.6249 16.475
30 10 4 27.2929 12.6299 14.8677
130 44 3 33.6784 17.3216 12.7998
131 44 4 34.6126 17.1322 12.8868
132 44 4 33.6251 18.2771 12.8224
31 11 3 42.785 18.2154 14.0343
32 11 4 41.9788 18.688 14.2414
33 11 4 43.3271 18.3129 14.8173
100 34 3 40.4732 13.3717 18.2012
101 34 4 40.258 14.0135 17.5244
193 65 3 38.5581 18.5448 17.8498
194 65 4 39.487 18.4649 17.6331
177 59 4 4.81454 24.2262 18.2868
67 23 3 10.776 23.1444 15.6485
68 23 4 10.6294 22.1992 15.6835
69 23 4 10.048 23.5177 16.1456
208 70 3 21.3293 22.3814 16.1892
209 70 4 21.9613 22.8769 16.7101
210 70 4 21.042 22.9962 15.5139
73 25 3 30.5583 23.4035 14.7632
74 25 4 30.3431 22.4787 14.8846
75 25 4 30.5057 23.7784 15.6425
199 67 3 36.7242 20.3495 13.0441
201 67 4 36.5079 21.2814 13.0787
195 65 4 38.3866 19.4863 17.8235
200 67 4 37.6807 20.3249 13.0733
176 59 4 5.66308 25.4791 18.3084
16 6 3 17.5585 26.0759 15.884
17 6 4 16.9071 26.7508 16.0752
18 6 4 17.4015 25.8447 14.9684
214 72 3 13.8797 26.3287 15.6384
215 72 4 13.6997 26.1722 14.7114
216 72 4 13.1494 25.9133 16.0971
265 89 3 22.5438 30.3178 14.0862
266 89 4 22.1987 29.4405 13.9206
267 89 4 22.2903 30.5077 14.9896
145 49 3 27.4564 30.3403 17.0829
146 49 4 28.3974 30.35 17.2579
147 49 4 27.2795 31.1904 16.6798
108 36 4 37.0188 30.5242 18.364
106 36 3 37.7193 29.8721 18.3854
107 36 4 38.5255 30.3857 18.3361
121 41 3 42.2954 28.9355 13.4167
122 41 4 43.2184 29.1472 13.2771
123 41 4 41.8223 29.6981 13.0836
249 83 4 5.75784 33.5362 16.1057
10 4 3 9.03276 32.8436 14.0807
11 4 4 8.74562 32.4316 13.2659
12 4 4 9.92843 33.1299 13.9011
247 83 3 6.70461 33.6646 16.0458
248 83 4 6.80523 34.5753 15.7689
253 85 3 18.1058 34.3136 17.1484
255 85 4 17.5926 35.0086 17.5608
91 31 3 23.0642 36.2933 15.5234
92 31 4 23.3545 36.1044 16.4157
93 31 4 22.6215 37.1395 15.5902
112 38 3 22.9873 33.615 17.9609
113 38 4 23.5225 33.2147 17.2756
114 38 4 23.3154 34.5119 18.027
254 85 4 18.969 34.7036 17.0105
55 19 3 25.3876 33.3132 15.0593
56 19 4 25.5842 33.0387 15.955
57 19 4 25.3292 34.2674 15.1091
229 77 3 36.6006 33.7469 14.2823
230 77 4 36.3585 32.8859 13.9413
231 77 4 35.8856 33.9788 14.8751
148 50 3 39.4891 36.7677 17.9513
98 33 4 5.69326 41.3376 14.3505
99 33 4 5.97637 40.6764 15.6819
97 33 3 6.39981 40.9529 14.8691
256 86 3 27.28 42.1924 16.5674
257 86 4 28.109 42.4582 16.9654
258 86 4 26.8183 43.0152 16.405
150 50 4 38.9971 37.5117 18.2988
288 96 4 44.3844 39.7952 12.8082
13 5 3 14.4419 12.2078 19.6805
14 5 4 14.6533 11.3336 20.0081
169 57 3 32.8711 7.07019 19.1661
170 57 4 32.6841 7.93358 19.5346
171 57 4 32.9318 6.49331 19.9277
15 5 4 15.0225 12.7925 20.1677
1 1 3 41.7205 18.4692 19.9784
2 1 4 41.7754 18.1301 19.0849
3 1 4 40.7824 18.5767 20.136
102 34 4 40.6261 13.8958 18.9876
175 59 3 4.91863 25.0619 18.742
109 37 3 26.1643 30.0881 18.7299
110 37 4 26.1572 30.0751 19.687
111 37 4 25.314 29.7265 18.4796
79 27 3 36.1161 34.1693 19.0187
80 27 4 37.0694 34.2267 18.9554
81 27 4 35.8092 35.0523 18.8121
238 80 3 32.4519 35.1055 19.8698
239 80 4 33.3519 35.2637 20.1549
240 80 4 32.2599 35.8284 19.2723
149 50 4 39.7979 36.3014 18.7281
52 18 3 30.7643 40.655 19.6648
53 18 4 30.5802 39.7229 19.548
54 18 4 29.9229 41.0348 19.9184
244 82 3 35.5025 42.111 19.6905
245 82 4 35.9458 42.6654 20.3327
246 82 4 34.6276 42.4911 19.6101
304 102 2 17.6322 33.6055 34.2823
305 102 1 17.794 33.1621 35.3419
306 102 2 17.9557 32.7187 36.4016
317 106 1 19.7939 6.18088 40.2779
318 106 2 20.0288 5.17445 40.8047
315 105 2 30.2973 5.57801 38.9197
316 106 2 19.559 7.18731 39.7511
313 105 2 30.5531 7.80696 39.5103
314 105 1 30.4252 6.69249 39.215
322 108 2 38.5546 11.0045 41.5714
323 108 1 39.6883 10.8005 41.4342
324 108 2 40.8219 10.5964 41.2969
310 104 2 26.8781 21.6179 39.1776
311 104 1 27.4773 20.9722 38.4229
312 104 2 28.0765 20.3265 37.6682
309 103 2 26.6945 43.1002 39.6122
325 109 2 29.2491 38.1554 38.0374
326 109 1 30.3176 38.5054 38.3229
327 109 2 31.3861 38.8553 38.6083
307 103 2 28.0772 44.8204 38.8969
308 103 1 27.3858 43.9603 39.2546
301 101 2 26.5809 18.8346 55.2551
319 107 2 39.1256 17.6723 57.5942
320 107 1 40.1242 17.1587 57.8849
321 107 2 41.1228 16.645 58.1755
302 101 1 26.5133 19.3886 56.2721
303 101 2 26.4458 19.9425 57.289
328 110 2 27.5627 8.14417 62.8307
329 110 1 28.4857 8.73158 62.4451
330 110 2 29.4086 9.31898 62.0595
ITEM: TIMESTEP
50
ITEM: NUMBER OF ATOMS
330
ITEM: BOX BOUNDS pp pp ff
0.0000000000000000e+00 5.0000000000000000e+01
0.0000000000000000e+00 5.0000000000000000e+01
0.0000000000000000e+00 8.0000000000000000e+01
ITEM: ATOMS id mol type x y z
203 68 4 20.642 12.056 5.48555
205 69 3 30.1942 7.72617 5.00147
206 69 4 30.9837 7.96907 5.46591
207 69 4 29.7203 8.52146 4.88733
202 68 3 20.6567 12.8748 5.95982
204 68 4 20.9541 13.5043 5.34235
271 91 3 21.737 21.2489 5.785
272 91 4 22.0901 20.3587 5.52985
25 9 3 9.92054 26.0105 6.24706
26 9 4 9.97764 25.0776 6.05863
27 9 4 10.6873 26.4008 5.8418
223 75 3 23.4365 28.7071 4.93148
224 75 4 24.167 29.3488 4.83343
221 74 4 25.8844 25.5146 5.36053
276 92 4 42.6028 27.5654 6.2058
76 26 3 7.65749 32.9739 6.28627
77 26 4 7.23814 33.43 5.55336
78 26 4 8.31597 32.384 5.8994
88 30 3 15.8867 36.8276 4.92861
89 30 4 16.1874 36.8489 4.03753
90 30 4 15.0254 36.4688 4.81395
118 40 3 14.8294 33.4574 5.87116
119 40 4 15.4996 32.8574 5.45168
250 84 3 21.3196 41.1138 6.03002
251 84 4 21.1442 40.1879 6.09535
252 84 4 21.8494 41.2219 5.23005
4 2 3 42.8038 41.9788 5.48647
5 2 4 42.6535 42.3671 6.37723
6 2 4 42.187 42.4628 4.90563
71 24 4 6.92902 5.36858 10.3544
70 24 3 7.18033 5.85973 11.1303
72 24 4 7.97059 5.41295 11.431
115 39 3 5.12053 10.1972 10.1395
116 39 4 4.21788 10.4849 10.2814
117 39 4 5.03037 9.8449 9.23886
124 42 3 8.29867 9.97175 9.41165
125 42 4 7.86775 10.7697 9.78967
126 42 4 7.98667 9.94853 8.5093
127 43 3 11.7552 9.72464 8.75383
128 43 4 11.8229 9.68035 7.80191
129 43 4 12.3493 8.99358 9.03518
235 79 3 9.31618 6.78278 8.85506
236 79 4 9.55099 5.83548 9.01575
237 79 4 9.91203 7.05184 8.1494
181 61 3 15.9922 5.95198 10.206
182 61 4 15.7861 5.29368 10.8874
183 61 4 16.8883 6.25666 10.3327
283 95 3 16.8332 9.67521 9.33796
284 95 4 17.2126 10.0925 10.1264
285 95 4 15.8824 9.87267 9.39236
34 12 3 22.8844 8.28516 7.09257
35 12 4 23.2094 8.92852 7.70334
36 12 4 22.8298 8.73939 6.28486
37 13 3 27.6235 8.91084 7.57136
38 13 4 28.2213 8.90169 8.3349
39 13 4 27.7844 8.08149 7.10387
165 55 4 26.3942 12.7109 8.77573
259 87 3 31.3896 11.8377 7.50356
260 87 4 31.903 11.0481 7.6883
49 17 3 41.3216 11.8133 11.5584
50 17 4 41.0067 11.6386 10.6624
190 64 3 8.46581 14.6712 10.6533
191 64 4 7.74559 14.267 11.1165
192 64 4 9.26736 14.2241 10.9859
58 20 3 13.1109 17.3316 11.2045
59 20 4 12.8451 17.5657 12.115
60 20 4 13.2731 16.4327 11.231
40 14 3 22.3658 13.8012 8.56976
41 14 4 22.0248 12.9972 8.16099
42 14 4 22.726 13.4724 9.4156
103 35 3 23.8427 17.1412 9.08081
104 35 4 24.1262 17.7825 9.67183
105 35 4 23.8462 17.5537 8.23986
241 81 3 21.4085 17.3269 12.3151
242 81 4 20.9838 17.8771 11.6998
243 81 4 21.3139 17.8328 13.1645
163 55 3 27.1774 13.0349 8.32379
164 55 4 27.8732 12.3933 8.4507
232 78 3 28.6349 13.2028 12.4888
233 78 4 29.4236 12.8631 12.8788
234 78 4 28.2218 13.6636 13.1986
82 28 3 31.3413 18.8738 6.92469
83 28 4 30.7105 18.2632 6.53067
84 28 4 31.566 18.5015 7.74865
157 53 3 34.7609 17.2711 8.84929
158 53 4 34.3482 16.4746 8.51191
159 53 4 34.0702 17.7459 9.31524
261 87 4 32.0331 12.5759 7.51848
51 17 4 40.7413 12.4799 11.8781
262 88 3 43.697 17.2438 9.69778
264 88 4 42.8102 17.6362 9.74869
263 88 4 44.1885 17.832 9.09711
273 91 4 22.2392 21.5275 6.57776
20 7 4 28.8605 24.4063 9.91307
21 7 4 29.3343 24.807 11.279
46 16 3 28.1677 20.9694 9.08258
47 16 4 28.3008 21.7814 9.52049
48 16 4 29.0423 20.5614 9.02403
280 94 3 9.26609 29.6061 11.4806
281 94 4 9.72394 28.8582 11.7691
282 94 4 8.72414 29.2772 10.7726
291 97 4 12.5485 25.8999 9.655
289 97 3 13.022 25.177 9.24547
290 97 4 13.931 25.4731 9.26313
151 51 3 21.4779 30.1601 7.22005
152 51 4 20.7352 30.5836 6.72243
153 51 4 21.6753 30.8353 7.87944
225 75 4 22.5268 29.1128 4.80925
268 90 3 19.9805 29.5928 10.6515
269 90 4 19.7643 28.7701 10.2045
270 90 4 20.7271 29.3729 11.1927
19 7 3 28.7331 25.0483 10.6218
142 48 3 25.6811 27.9366 8.90888
143 48 4 26.2706 27.461 9.44288
144 48 4 25.5282 28.7416 9.37067
220 74 3 25.9783 25.5088 6.33653
222 74 4 27.0173 25.6397 6.43908
61 21 3 36.9173 27.2377 9.22532
62 21 4 36.9226 26.5599 8.55002
63 21 4 36.6256 26.7841 10.013
139 47 3 39.5508 30.7446 11.4476
141 47 4 38.7121 30.227 11.3883
274 92 3 42.9827 27.8168 7.02771
275 92 4 43.194 27.0045 7.44153
184 62 3 11.6135 33.6922 11.9065
185 62 4 11.6937 32.8143 11.5619
186 62 4 11.8781 34.2834 11.1727
298 100 3 11.0364 32.5072 8.73705
299 100 4 10.6824 33.2723 8.28115
300 100 4 11.9643 32.4592 8.43049
94 32 3 18.6289 32.5978 7.72402
96 32 4 19.0207 32.0853 8.46738
120 40 4 14.2034 33.5925 5.13352
95 32 4 17.702 32.579 8.0209
211 71 3 20.8657 37.4768 9.03128
212 71 4 21.5067 36.7479 9.02489
140 47 4 40.2546 30.1141 11.4957
277 93 3 39.7084 33.4503 8.75165
278 93 4 40.2688 34.1673 8.46557
279 93 4 38.9297 33.8906 9.10907
198 66 4 5.85463 42.6973 8.80184
187 63 3 8.68644 40.0498 8.06593
188 63 4 8.10538 39.3991 8.51495
189 63 4 9.55452 39.9286 8.45925
196 66 3 6.70782 43.1618 8.82609
197 66 4 7.34839 42.4526 8.95835
133 45 3 17.8311 40.2197 10.0468
134 45 4 17.042 40.5557 10.499
295 99 3 15.7776 43.363 8.75359
297 99 4 15.5889 42.4508 8.62369
135 45 4 18.5062 40.928 10.1894
180 60 4 25.7704 39.6005 9.1378
213 71 4 21.3294 38.2168 9.43948
154 52 3 26.3157 40.8122 12.2577
155 52 4 26.9061 40.0775 11.9803
156 52 4 25.887 40.4918 13.0361
178 60 3 25.3875 38.9214 9.72849
179 60 4 25.1523 38.1846 9.12816
160 54 3 32.4116 40.7838 7.98308
161 54 4 31.484 40.9315 8.1176
162 54 4 32.6439 41.4168 7.32953
172 58 3 34.2764 37.9938 7.84132
173 58 4 33.4365 37.686 8.21832
174 58 4 34.1033 38.0258 6.88477
7 3 3 41.5806 40.1903 10.4809
8 3 4 40.6802 40.1792 10.1625
9 3 4 41.8072 41.0998 10.6
286 96 3 44.6211 39.7082 11.956
287 96 4 44.3208 38.9951 11.4104
296 99 4 15.1904 43.6057 9.44072
85 29 3 35.2594 44.1787 9.60645
86 29 4 35.8912 43.4866 9.56845
87 29 4 35.6907 44.8884 10.1088
136 46 3 42.1079 6.21749 16.1441
137 46 4 42.9644 5.93018 15.7881
138 46 4 42.1117 5.89717 17.0569
217 73 3 7.34683 6.29099 17.6891
218 73 4 7.78725 6.32358 18.5232
219 73 4 7.48122 7.14534 17.3347
227 76 4 12.3189 7.81796 15.0753
226 76 3 12.5308 8.54789 15.6776
228 76 4 12.8021 8.12783 16.4997
293 98 4 15.9561 12.7005 15.2005
28 10 3 27.5746 11.8991 15.141
29 10 4 28.1599 12.3067 15.7832
43 15 3 28.0859 7.95868 15.7099
44 15 4 27.8213 8.38092 16.5035
45 15 4 28.6886 7.28766 15.9884
166 56 3 34.65 6.99898 14.1549
167 56 4 34.8194 7.51403 13.3434
168 56 4 33.918 7.46908 14.617
292 98 3 16.6885 12.9766 14.6923
294 98 4 16.3451 13.7002 14.1731
64 22 3 19.2001 16.8831 14.2952
65 22 4 19.2847 16.9785 15.2313
66 22 4 18.5789 17.5669 14.0286
22 8 3 29.1787 17.4185 15.4233
23 8 4 28.9655 18.0841 14.7478
24 8 4 28.3291 17.2543 15.8505
30 10 4 26.703 11.9316 15.574
130 44 3 33.6969 17.1689 12.6403
131 44 4 34.4115 17.3856 13.2887
132 44 4 32.9281 17.6783 12.9477
31 11 3 42.9156 18.3014 13.9899
32 11 4 42.1812 17.8474 13.5874
33 11 4 43.0658 17.8492 14.8213
100 34 3 40.5645 13.2121 18.215
101 34 4 39.6947 13.1074 17.8353
193 65 3 38.8409 18.6283 17.8656
194 65 4 38.3541 17.9306 17.4543
177 59 4 4.17996 25.0432 19.0862
67 23 3 10.8821 23.3631 15.5991
68 23 4 10.8572 22.44 15.3966
69 23 4 10.6203 23.3982 16.537
208 70 3 21.0556 22.4528 16.4043
209 70 4 21.9272 22.6544 16.6249
210 70 4 20.6139 23.2955 16.3927
73 25 3 30.8242 23.1143 14.7934
74 25 4 31.1152 22.9842 15.6751
75 25 4 31.0063 24.045 14.6175
199 67 3 37.1483 20.6021 13.3222
201 67 4 36.768 21.4571 13.5898
195 65 4 39.0627 19.2413 17.1515
200 67 4 37.3284 20.6952 12.3979
176 59 4 4.93618 24.6699 17.8023
16 6 3 17.4587 26.0624 16.0608
17 6 4 17.1844 26.9028 15.6681
18 6 4 17.4227 25.4344 15.3274
214 72 3 14.033 26.1423 15.9043
215 72 4 14.1137 26.4779 15.0136
216 72 4 13.2137 25.6766 15.9245
265 89 3 22.8573 30.3238 13.8245
266 89 4 22.5285 29.5082 14.1604
267 89 4 23.0362 30.8468 14.6098
145 49 3 28.4347 30.2966 16.3026
146 49 4 28.5864 29.5358 16.8752
147 49 4 28.8638 31.0354 16.7211
108 36 4 37.311 30.875 17.4995
106 36 3 37.5841 30.1937 18.0735
107 36 4 37.9499 30.6516 18.8418
121 41 3 42.8866 28.8922 13.4109
122 41 4 42.0739 28.6939 12.9468
123 41 4 42.6182 28.6025 14.3263
249 83 4 6.30735 34.0446 16.7215
10 4 3 8.97141 32.8521 14.3433
11 4 4 9.57674 32.2679 13.8662
12 4 4 8.59207 32.3322 15.0322
247 83 3 6.76192 33.7997 15.8856
248 83 4 6.66215 34.601 15.3082
253 85 3 18.196 34.561 17.0718
255 85 4 17.5727 35.2546 17.2372
91 31 3 22.9388 36.5525 15.5876
92 31 4 23.5834 37.0574 15.0572
93 31 4 22.9572 35.7031 15.1831
112 38 3 23.0655 33.6539 18.2284
113 38 4 22.127 33.5993 18.2183
114 38 4 23.3598 33.3499 19.1087
254 85 4 18.1865 34.4585 16.0941
55 19 3 25.0955 33.1003 14.8179
56 19 4 25.5577 32.2522 14.8985
57 19 4 25.7714 33.7555 15.0237
229 77 3 36.2554 33.9579 14.5395
230 77 4 36.7761 33.8824 13.7411
231 77 4 35.9432 34.8656 14.523
148 50 3 39.4142 36.67 17.75
98 33 4 5.67663 40.3544 15.0287
99 33 4 6.89586 41.2284 15.3242
97 33 3 6.3029 40.9652 14.6192
256 86 3 27.5327 42.1048 16.8205
257 86 4 28.0915 41.387 16.5512
258 86 4 28.097 42.8636 16.8313
150 50 4 38.4438 36.6228 17.8107
288 96 4 45.5024 39.479 12.2222
13 5 3 14.7328 12.3578 19.7235
14 5 4 13.9738 12.3954 19.1205
169 57 3 32.8558 6.9615 19.4056
170 57 4 31.947 7.29497 19.578
171 57 4 32.8399 6.07275 19.8048
15 5 4 14.4017 12.7214 20.5605
1 1 3 41.4957 18.6279 20.1997
2 1 4 41.6242 17.7304 20.3602
3 1 4 41.2573 19.0003 21.0667
102 34 4 40.6487 14.1252 18.3288
175 59 3 4.99987 25.2355 18.5952
109 37 3 25.3902 30.1866 19.5523
110 37 4 25.581 30.7354 20.283
111 37 4 24.6736 29.6226 19.8086
79 27 3 36.1161 34.3034 19.1778
80 27 4 37.0631 34.2708 18.9402
81 27 4 35.7455 34.9365 18.5553
238 80 3 32.5366 34.8935 20.0846
239 80 4 32.8358 35.6922 20.5612
240 80 4 33.05 34.9291 19.2742
149 50 4 39.6954 35.7424 17.8558
52 18 3 30.4743 40.4109 19.5187
53 18 4 29.8215 40.5097 18.7999
54 18 4 30.2598 41.1528 20.1237
244 82 3 35.4627 42.355 19.4681
245 82 4 36.226 42.9399 19.5448
246 82 4 35.4644 42.0691 18.5375
304 102 2 17.7156 33.8885 34.3598
305 102 1 17.8791 33.2566 35.3205
306 102 2 18.0087 32.6148 36.2776
317 106 1 19.8821 6.24327 40.328
318 106 2 20.0573 5.16324 40.7141
315 105 2 30.189 5.49026 38.7425
316 106 2 19.7049 7.32403 39.9533
313 105 2 30.6796 7.54613 39.7124
314 105 1 30.4226 6.52156 39.2272
322 108 2 38.4082 11.2602 41.4983
323 108 1 39.508 10.9457 41.3643
324 108 2 40.6048 10.6166 41.2471
310 104 2 26.9819 21.7068 39.1049
311 104 1 27.6157 20.9377 38.5153
312 104 2 28.2256 20.1843 37.8869
309 103 2 26.5099 43.2335 39.466
325 109 2 29.3844 38.3196 37.7746
326 109 1 30.4012 38.4686 38.3326
327 109 2 31.4316 38.598 38.8718
307 103 2 28.1062 44.7131 38.7164
308 103 1 27.3076 43.9704 39.0884
301 101 2 26.6289 18.7005 55.3434
319 107 2 39.1894 17.6337 57.6586
320 107 1 40.1804 17.0469 57.8031
321 107 2 41.2003 16.5097 57.9316
302 101 1 26.4752 19.4468 56.1999
303 101 2 26.3566 20.2161 57.0409
328 110 2 27.3633 8.33288 62.9091
329 110 1 28.3407 8.71603 62.4241
330 110 2 29.3165 9.06661 61.9205
ITEM: TIMESTEP
100
ITEM: NUMBER OF ATOMS
330
ITEM: BOX BOUNDS pp pp ff
0.0000000000000000e+00 5.0000000000000000e+01
0.0000000000000000e+00 5.0000000000000000e+01
0.0000000000000000e+00 8.0000000000000000e+01
ITEM: ATOMS id mol type x y z
203 68 4 20.3138 11.597 5.07235
205 69 3 30.2053 7.98651 4.91171
206 69 4 30.3843 8.75873 5.47658
207 69 4 29.27 8.04911 4.75229
202 68 3 20.3529 12.4232 5.58292
204 68 4 20.8352 13.024 5.0191
271 91 3 21.7701 21.1453 5.64322
272 91 4 21.2169 20.3587 5.64178
25 9 3 10.0506 25.7052 6.3402
26 9 4 9.8861 24.7624 6.25054
27 9 4 11.0082 25.7411 6.40043
223 75 3 23.7061 28.9592 4.02443
224 75 4 23.2723 29.7534 4.3525
221 74 4 26.961 24.2723 6.41989
276 92 4 42.1624 27.8735 6.94158
76 26 3 7.36247 32.9118 6.49391
77 26 4 7.53993 33.684 5.96032
78 26 4 7.17413 32.2504 5.82001
88 30 3 15.9417 37.4537 4.30892
89 30 4 15.6947 37.1128 3.43988
90 30 4 15.9645 36.7257 4.9269
118 40 3 14.207 32.7214 5.8212
119 40 4 15.0665 32.9971 6.12716
250 84 3 21.2978 41.1686 6.29636
251 84 4 21.5227 40.2497 6.38707
252 84 4 22.1225 41.5467 5.94951
4 2 3 42.8669 42.0003 5.3644
5 2 4 41.9356 42.1784 5.5087
6 2 4 42.8874 41.1462 4.94758
71 24 4 6.37723 5.77948 10.7076
70 24 3 7.23844 5.92894 11.0966
72 24 4 7.6104 5.0504 11.2255
115 39 3 4.86776 10.2166 10.2911
116 39 4 3.95656 10.1371 10.527
117 39 4 5.40108 9.60945 10.8303
124 42 3 8.66368 10.0779 9.24316
125 42 4 8.57508 10.948 9.6713
126 42 4 8.05733 10.073 8.52167
127 43 3 12.4752 10.2427 8.64877
128 43 4 12.2516 9.69628 7.91783
129 43 4 11.8245 10.0656 9.35227
235 79 3 9.13804 6.24778 8.81516
236 79 4 9.77319 6.01788 8.11832
237 79 4 9.50349 7.00314 9.23407
181 61 3 15.7948 5.51207 10.135
182 61 4 16.6617 5.84168 9.99471
183 61 4 15.869 5.00975 10.9368
283 95 3 16.9548 10.0669 9.13394
284 95 4 16.4842 10.2645 9.95213
285 95 4 16.9196 9.10986 9.09935
34 12 3 22.5608 8.07474 7.0807
35 12 4 21.9009 8.77563 7.08963
36 12 4 22.9893 8.14469 6.22928
37 13 3 28.0709 9.0272 7.77377
38 13 4 27.429 9.53825 8.26759
39 13 4 27.5134 8.60206 7.13128
165 55 4 26.6392 11.848 7.33
259 87 3 31.2587 11.6392 7.55089
260 87 4 31.3816 11.0438 8.27352
49 17 3 41.5877 11.6919 11.7765
50 17 4 41.1197 11.7493 10.9255
190 64 3 8.39112 14.5461 10.942
191 64 4 7.91932 14.9381 10.2319
192 64 4 8.14402 13.6042 10.8876
58 20 3 13.1078 17.3853 11.3068
59 20 4 12.2856 17.2278 11.847
60 20 4 12.8996 17.0213 10.4844
40 14 3 22.6388 13.6647 8.90359
41 14 4 21.8619 14.1722 9.10209
42 14 4 22.6166 13.6268 7.93594
103 35 3 23.8086 17.2019 8.96694
104 35 4 23.8658 17.9062 9.61321
105 35 4 24.4734 16.5666 9.25707
241 81 3 21.5559 17.6365 12.5498
242 81 4 21.3157 17.1701 11.7948
243 81 4 22.5496 17.6238 12.5566
163 55 3 26.8893 12.7637 7.12816
164 55 4 26.0534 13.203 7.14638
232 78 3 29.1867 13.4153 13.6592
233 78 4 29.9443 13.0292 14.115
234 78 4 29.5118 13.6912 12.7956
82 28 3 30.945 18.9975 6.6855
83 28 4 30.352 19.7685 6.60341
84 28 4 31.0934 18.95 7.61325
157 53 3 34.5453 16.9348 8.81769
158 53 4 34.2133 16.3351 9.48166
159 53 4 34.9975 17.5977 9.33832
261 87 4 31.6681 12.4508 7.87585
51 17 4 41.2442 12.3982 12.3026
262 88 3 43.6866 17.4731 9.73211
264 88 4 42.9993 16.8288 9.87243
263 88 4 43.3362 18.0522 9.05725
273 91 4 22.0322 21.1732 6.55435
20 7 4 29.3159 25.2249 9.77571
21 7 4 28.987 24.5576 11.0901
46 16 3 28.2049 20.7555 9.0837
47 16 4 28.0401 21.6519 9.30825
48 16 4 29.1752 20.6844 9.18775
280 94 3 9.15787 29.4033 11.0557
281 94 4 8.87878 29.9609 11.7636
282 94 4 8.41453 28.7881 10.9125
291 97 4 12.7277 26.0946 9.16948
289 97 3 12.8304 25.1461 9.05236
290 97 4 13.7674 24.9454 9.16403
151 51 3 21.3426 30.4735 6.96336
152 51 4 21.6733 31.293 6.61706
153 51 4 21.0515 30.5973 7.85132
225 75 4 23.0671 28.7674 3.2804
268 90 3 20.1411 29.5043 10.7931
269 90 4 19.2955 29.9522 10.9469
270 90 4 20.7757 30.2107 10.8868
19 7 3 28.5872 25.0787 10.4217
142 48 3 25.7034 28.3705 9.12284
143 48 4 25.1837 27.5759 9.20985
144 48 4 25.7279 28.7302 10.0267
220 74 3 26.3624 24.9049 6.11196
222 74 4 25.5089 24.7814 6.59874
61 21 3 37.1619 27.3616 9.17741
62 21 4 36.4732 26.7929 8.8266
63 21 4 37.4519 26.9378 9.98554
139 47 3 39.1994 30.8702 11.6364
141 47 4 38.9594 29.9776 11.4183
274 92 3 43.0296 27.6825 7.32426
275 92 4 43.2379 26.7823 7.05844
184 62 3 12.1711 34.0265 11.7868
185 62 4 11.8559 33.2002 12.0914
186 62 4 13.0453 33.8028 11.4018
298 100 3 10.73 32.572 8.7322
299 100 4 10.3637 33.3797 9.05714
300 100 4 10.6267 32.6061 7.77192
94 32 3 18.5022 32.5906 8.23581
96 32 4 18.0693 33.0881 7.53099
120 40 4 13.6394 33.4852 5.82999
95 32 4 19.4547 32.5966 8.08806
211 71 3 20.5995 37.472 9.3989
212 71 4 20.7539 36.724 8.81941
140 47 4 38.7351 31.2914 10.9558
277 93 3 39.6085 33.2904 8.7278
278 93 4 40.0385 34.116 8.93314
279 93 4 39.4372 33.3219 7.77889
198 66 4 6.10483 42.7439 9.1434
187 63 3 8.98902 39.8011 8.1986
188 63 4 8.05772 39.5729 8.07917
189 63 4 9.09689 39.7555 9.13663
196 66 3 6.9206 43.242 9.20553
197 66 4 7.31066 43.2039 8.33633
133 45 3 17.6133 40.4673 9.94231
134 45 4 17.2458 39.9085 10.605
295 99 3 15.7989 43.47 8.79093
297 99 4 16.1722 42.5872 8.70603
135 45 4 18.1133 41.13 10.426
180 60 4 25.9067 38.3785 10.1059
213 71 4 21.4237 37.9482 9.35763
154 52 3 26.2949 40.6344 12.6001
155 52 4 26.9878 41.2607 12.2982
156 52 4 25.856 41.0905 13.2839
178 60 3 25.2904 38.9379 9.63478
179 60 4 25.562 38.8902 8.72022
160 54 3 32.119 40.894 8.34789
161 54 4 32.2736 39.9598 8.17281
162 54 4 32.5211 41.3596 7.61955
172 58 3 34.4536 38.0041 7.83959
173 58 4 33.9665 37.3278 7.37401
174 58 4 34.9655 38.4544 7.1672
7 3 3 41.4025 40.1407 10.5635
8 3 4 41.4478 40.2593 11.5215
9 3 4 41.3977 41.0509 10.2657
286 96 3 44.6864 39.6185 12.0192
287 96 4 44.0209 39.3064 11.4059
296 99 4 16.0073 43.7733 9.67874
85 29 3 35.0916 44.4765 9.52321
86 29 4 34.8554 43.7086 9.04042
87 29 4 36.0318 44.3299 9.74625
136 46 3 42.0702 6.15776 15.9256
137 46 4 42.1689 7.11296 15.9166
138 46 4 41.5024 5.99627 16.6747
217 73 3 7.39779 6.0095 17.6477
218 73 4 7.12591 6.29239 18.5348
219 73 4 7.7298 6.79015 17.1983
227 76 4 12.7507 8.8827 14.6976
226 76 3 12.3358 8.72227 15.5483
228 76 4 12.3323 7.7686 15.6088
293 98 4 16.1626 13.0676 15.7404
28 10 3 27.4273 11.9262 15.809
29 10 4 27.7386 12.4269 16.5532
43 15 3 27.9993 8.14401 15.6771
44 15 4 28.747 7.78807 16.1589
45 15 4 28.0056 7.68012 14.8269
166 56 3 34.9779 6.9804 14.1103
167 56 4 34.1801 7.03085 13.5987
168 56 4 34.6486 6.89958 15.0054
292 98 3 16.5449 12.8769 14.8918
294 98 4 16.9763 13.7029 14.6066
64 22 3 18.8825 17.0555 14.2487
65 22 4 18.2888 16.8836 14.9727
66 22 4 18.8478 16.2238 13.7533
22 8 3 29.1652 17.1244 15.1552
23 8 4 29.265 17.2605 14.2102
24 8 4 28.3227 16.6992 15.2733
30 10 4 28.183 11.4076 15.5003
130 44 3 33.6986 17.0635 12.5138
131 44 4 33.9412 17.5659 13.2948
132 44 4 32.8444 16.721 12.712
31 11 3 42.9475 18.3092 13.9385
32 11 4 43.3988 17.9368 13.1834
33 11 4 43.106 17.6523 14.6247
100 34 3 40.6295 13.0959 18.2128
101 34 4 39.8269 12.6198 18.5263
193 65 3 39.0738 18.6088 17.8108
194 65 4 38.5111 19.3445 17.9673
177 59 4 4.95365 26.1221 18.9513
67 23 3 10.976 23.5654 15.582
68 23 4 11.1162 22.7857 15.071
69 23 4 11.3355 23.3786 16.4676
208 70 3 20.7776 22.5376 16.6028
209 70 4 21.7155 22.6078 16.4856
210 70 4 20.5442 23.2245 17.2625
73 25 3 31.1087 22.9108 14.8704
74 25 4 31.4771 23.7332 15.158
75 25 4 31.1969 22.9221 13.8961
199 67 3 37.5439 20.8695 13.4984
201 67 4 37.1635 21.3065 14.2793
195 65 4 39.1423 18.5721 16.8421
200 67 4 36.7865 20.6209 12.9955
176 59 4 4.23741 24.8033 18.6959
16 6 3 17.3584 26.0672 16.2012
17 6 4 17.816 26.5884 15.5445
18 6 4 17.3545 25.1797 15.8501
214 72 3 14.164 25.9627 16.1403
215 72 4 14.3781 26.631 15.4747
216 72 4 13.4578 25.4748 15.7213
265 89 3 23.1254 30.3027 13.6219
266 89 4 22.854 29.3986 13.7196
267 89 4 22.4298 30.8209 14.0583
145 49 3 29.4882 30.2495 15.5499
146 49 4 28.5691 29.9915 15.6926
147 49 4 29.9072 29.9224 16.3436
108 36 4 37.8243 31.2579 17.3283
106 36 3 37.4646 30.5174 17.7848
107 36 4 36.9442 30.9069 18.5187
121 41 3 43.4012 28.7177 13.4783
122 41 4 44.0293 28.6906 14.1737
123 41 4 42.6558 28.2149 13.75
249 83 4 7.08078 34.5552 16.5176
10 4 3 9.08064 32.5009 14.7049